ITEM: TIMESTEP
5000
ITEM: NUMBER OF ATOMS
383
ITEM: BOX BOUNDS pp pp pp
-2.0000000000000000e+01 2.0000000000000000e+01
-2.0000000000000000e+01 2.0000000000000000e+01
-2.0000000000000000e+01 1.5000000000000000e+02
ITEM: ATOMS id mol type x y z
381 1 2 -0.426905 -0.739421 -7.55413
374 1 2 -0.453125 -1.39458 -6.87456
373 1 2 -1.1863 -0.861896 -6.87456
382 1 2 0.426905 -0.739421 -7.55413
375 1 2 0.453125 -1.39458 -6.87456
376 1 2 1.1863 -0.861896 -6.87456
380 1 2 -0.85381 1.04562e-16 -7.55413
379 1 2 -0.426905 0.739421 -7.55413
372 1 2 -1.46634 1.79575e-16 -6.87456
371 1 2 -1.1863 0.861896 -6.87456
370 1 2 -0.453125 1.39458 -6.87456
383 1 2 0 0 -7.88
377 1 2 0.85381 0 -7.55413
378 1 2 0.426905 0.739421 -7.55413
367 1 2 1.46634 0 -6.87456
368 1 2 1.1863 0.861896 -6.87456
369 1 2 0.453125 1.39458 -6.87456
363 1 2 -0.677972 -1.78766 -6.07244
350 1 2 -0.234988 -2.23576 -5.21786
349 1 2 -1.12404 -1.94689 -5.21786
364 1 2 0.230455 -1.89797 -6.07244
365 1 2 1.08609 -1.57347 -6.07244
351 1 2 0.694693 -2.13805 -5.21786
352 1 2 1.50426 -1.67065 -5.21786
361 1 2 -1.85635 -0.457549 -6.07244
348 1 2 -1.81873 -1.32139 -5.21786
347 1 2 -2.19895 -0.467401 -5.21786
362 1 2 -1.43108 -1.26783 -6.07244
366 1 2 1.69291 -0.888508 -6.07244
353 1 2 2.05372 -0.914375 -5.21786
360 1 2 -1.85635 0.457549 -6.07244
346 1 2 -2.19895 0.467401 -5.21786
345 1 2 -1.81873 1.32139 -5.21786
359 1 2 -1.43108 1.26783 -6.07244
354 1 2 1.91191 0 -6.07244
355 1 2 1.69291 0.888508 -6.07244
339 1 2 2.24808 0 -5.21786
340 1 2 2.05372 0.914375 -5.21786
358 1 2 -0.677972 1.78766 -6.07244
344 1 2 -1.12404 1.94689 -5.21786
343 1 2 -0.234988 2.23576 -5.21786
357 1 2 0.230455 1.89797 -6.07244
356 1 2 1.08609 1.57347 -6.07244
341 1 2 1.50426 1.67065 -5.21786
342 1 2 0.694693 2.13805 -5.21786
334 1 2 -0.685508 -2.40931 -4.33623
333 1 2 -1.50956 -1.99898 -4.33623
335 1 2 0.231126 -2.49425 -4.33623
336 1 2 1.11655 -2.24232 -4.33623
337 1 2 1.85117 -1.68756 -4.33623
332 1 2 -2.12974 -1.31868 -4.33623
331 1 2 -2.46228 -0.46028 -4.33623
338 1 2 2.33578 -0.904886 -4.33623
330 1 2 -2.46228 0.46028 -4.33623
329 1 2 -2.12974 1.31868 -4.33623
322 1 2 2.50493 0 -4.33623
323 1 2 2.33578 0.904886 -4.33623
328 1 2 -1.50956 1.99898 -4.33623
327 1 2 -0.685508 2.40931 -4.33623
326 1 2 0.231126 2.49425 -4.33623
325 1 2 1.11655 2.24232 -4.33623
324 1 2 1.85117 1.68756 -4.33623
315 1 2 -2.06784 -1.73513 -3.43819
297 1 2 -1.92424 -2.09028 -2.53036
316 1 2 -1.34969 -2.33773 -3.43819
317 1 2 -0.468742 -2.65837 -3.43819
298 1 2 -1.14127 -2.60183 -2.53036
299 1 2 -0.234618 -2.83142 -2.53036
318 1 2 0.468742 -2.65837 -3.43819
319 1 2 1.34969 -2.33773 -3.43819
300 1 2 0.697455 -2.75419 -2.53036
320 1 2 2.06784 -1.73513 -3.43819
301 1 2 1.55395 -2.37849 -2.53036
302 1 2 2.24205 -1.74505 -2.53036
314 1 2 -2.53658 -0.923241 -3.43819
296 1 2 -2.49869 -1.35223 -2.53036
295 1 2 -2.80237 -0.467634 -2.53036
321 1 2 2.53658 -0.923241 -3.43819
303 1 2 2.68718 -0.922511 -2.53036
313 1 2 -2.69938 3.30578e-16 -3.43819
312 1 2 -2.53658 0.923241 -3.43819
294 1 2 -2.80237 0.467634 -2.53036
293 1 2 -2.49869 1.35223 -2.53036
304 1 2 2.69938 0 -3.43819
305 1 2 2.53658 0.923241 -3.43819
285 1 2 2.84112 0 -2.53036
286 1 2 2.68718 0.922511 -2.53036
311 1 2 -2.06784 1.73513 -3.43819
292 1 2 -1.92424 2.09028 -2.53036
310 1 2 -1.34969 2.33773 -3.43819
309 1 2 -0.468742 2.65837 -3.43819
291 1 2 -1.14127 2.60183 -2.53036
290 1 2 -0.234618 2.83142 -2.53036
308 1 2 0.468742 2.65837 -3.43819
307 1 2 1.34969 2.33773 -3.43819
289 1 2 0.697455 2.75419 -2.53036
306 1 2 2.06784 1.73513 -3.43819
287 1 2 2.24205 1.74505 -2.53036
288 1 2 1.55395 2.37849 -2.53036
278 1 2 -1.98863 -2.16023 -1.61648
259 1 2 -1.75641 -2.41749 -0.698854
258 1 2 -2.41749 -1.75641 -0.698854
280 1 2 -0.242469 -2.92617 -1.61648
279 1 2 -1.17946 -2.68889 -1.61648
260 1 2 -0.923398 -2.84193 -0.698854
281 1 2 0.720794 -2.84635 -1.61648
261 1 2 -5.4892e-16 -2.98818 -0.698854
262 1 2 0.923398 -2.84193 -0.698854
282 1 2 1.60595 -2.45809 -1.61648
283 1 2 2.31707 -1.80345 -1.61648
263 1 2 1.75641 -2.41749 -0.698854
264 1 2 2.41749 -1.75641 -0.698854
277 1 2 -2.58231 -1.39748 -1.61648
276 1 2 -2.89615 -0.483283 -1.61648
257 1 2 -2.84193 -0.923398 -0.698854
284 1 2 2.77711 -0.953383 -1.61648
265 1 2 2.84193 -0.923398 -0.698854
275 1 2 -2.89615 0.483283 -1.61648
274 1 2 -2.58231 1.39748 -1.61648
256 1 2 -2.98818 3.65946e-16 -0.698854
255 1 2 -2.84193 0.923398 -0.698854
266 1 2 2.9362 0 -1.61648
267 1 2 2.77711 0.953383 -1.61648
246 1 2 2.98818 0 -0.698854
247 1 2 2.84193 0.923398 -0.698854
273 1 2 -1.98863 2.16023 -1.61648
254 1 2 -2.41749 1.75641 -0.698854
253 1 2 -1.75641 2.41749 -0.698854
272 1 2 -1.17946 2.68889 -1.61648
271 1 2 -0.242469 2.92617 -1.61648
252 1 2 -0.923398 2.84193 -0.698854
270 1 2 0.720794 2.84635 -1.61648
250 1 2 0.923398 2.84193 -0.698854
251 1 2 1.82973e-16 2.98818 -0.698854
268 1 2 2.31707 1.80345 -1.61648
269 1 2 1.60595 2.45809 -1.61648
248 1 2 2.41749 1.75641 -0.698854
249 1 2 1.75641 2.41749 -0.698854
239 1 2 -1.76267 -2.42611 0.219795
238 1 2 -2.42611 -1.76267 0.219795
240 1 2 -0.92669 -2.85206 0.219795
241 1 2 -5.50877e-16 -2.99883 0.219795
242 1 2 0.92669 -2.85206 0.219795
243 1 2 1.76267 -2.42611 0.219795
244 1 2 2.42611 -1.76267 0.219795
237 1 2 -2.85206 -0.92669 0.219795
245 1 2 2.85206 -0.92669 0.219795
236 1 2 -2.99883 3.67251e-16 0.219795
235 1 2 -2.85206 0.92669 0.219795
226 1 2 2.99883 0 0.219795
227 1 2 2.85206 0.92669 0.219795
234 1 2 -2.42611 1.76267 0.219795
233 1 2 -1.76267 2.42611 0.219795
232 1 2 -0.92669 2.85206 0.219795
230 1 2 0.92669 2.85206 0.219795
231 1 2 1.83626e-16 2.99883 0.219795
228 1 2 2.42611 1.76267 0.219795
229 1 2 1.76267 2.42611 0.219795
219 1 2 -1.74488 -2.40162 1.13779
218 1 2 -2.40162 -1.74488 1.13779
199 1 2 -1.96161 -2.13088 2.05393
220 1 2 -0.917336 -2.82327 1.13779
201 1 2 -0.239175 -2.88641 2.05393
200 1 2 -1.16343 -2.65235 2.05393
221 1 2 -5.45316e-16 -2.96856 1.13779
222 1 2 0.917336 -2.82327 1.13779
202 1 2 0.710999 -2.80767 2.05393
223 1 2 1.74488 -2.40162 1.13779
224 1 2 2.40162 -1.74488 1.13779
203 1 2 1.58413 -2.42468 2.05393
204 1 2 2.28559 -1.77894 2.05393
217 1 2 -2.82327 -0.917336 1.13779
198 1 2 -2.54722 -1.37849 2.05393
197 1 2 -2.8568 -0.476715 2.05393
225 1 2 2.82327 -0.917336 1.13779
205 1 2 2.73937 -0.940427 2.05393
216 1 2 -2.96856 3.63544e-16 1.13779
215 1 2 -2.82327 0.917336 1.13779
196 1 2 -2.8568 0.476715 2.05393
195 1 2 -2.54722 1.37849 2.05393
206 1 2 2.96856 0 1.13779
207 1 2 2.82327 0.917336 1.13779
187 1 2 2.8963 0 2.05393
188 1 2 2.73937 0.940427 2.05393
214 1 2 -2.40162 1.74488 1.13779
213 1 2 -1.74488 2.40162 1.13779
194 1 2 -1.96161 2.13088 2.05393
212 1 2 -0.917336 2.82327 1.13779
193 1 2 -1.16343 2.65235 2.05393
192 1 2 -0.239175 2.88641 2.05393
210 1 2 0.917336 2.82327 1.13779
211 1 2 1.81772e-16 2.96856 1.13779
191 1 2 0.710999 2.80767 2.05393
208 1 2 2.40162 1.74488 1.13779
209 1 2 1.74488 2.40162 1.13779
189 1 2 2.28559 1.77894 2.05393
190 1 2 1.58413 2.42468 2.05393
180 1 2 -2.12922 -1.78663 2.96522
163 1 2 -1.57501 -2.08565 3.8688
181 1 2 -1.38975 -2.40712 2.96522
182 1 2 -0.482655 -2.73727 2.96522
164 1 2 -0.715229 -2.51377 3.8688
183 1 2 0.482655 -2.73727 2.96522
184 1 2 1.38975 -2.40712 2.96522
165 1 2 0.241147 -2.60239 3.8688
166 1 2 1.16495 -2.33954 3.8688
185 1 2 2.12922 -1.78663 2.96522
167 1 2 1.93143 -1.76073 3.8688
179 1 2 -2.61187 -0.950644 2.96522
162 1 2 -2.22208 -1.37585 3.8688
161 1 2 -2.56904 -0.480237 3.8688
186 1 2 2.61187 -0.950644 2.96522
168 1 2 2.43705 -0.944119 3.8688
178 1 2 -2.7795 3.4039e-16 2.96522
177 1 2 -2.61187 0.950644 2.96522
160 1 2 -2.56904 0.480237 3.8688
159 1 2 -2.22208 1.37585 3.8688
169 1 2 2.7795 0 2.96522
170 1 2 2.61187 0.950644 2.96522
152 1 2 2.61354 0 3.8688
153 1 2 2.43705 0.944119 3.8688
176 1 2 -2.12922 1.78663 2.96522
158 1 2 -1.57501 2.08565 3.8688
175 1 2 -1.38975 2.40712 2.96522
174 1 2 -0.482655 2.73727 2.96522
157 1 2 -0.715229 2.51377 3.8688
173 1 2 0.482655 2.73727 2.96522
172 1 2 1.38975 2.40712 2.96522
156 1 2 0.241147 2.60239 3.8688
155 1 2 1.16495 2.33954 3.8688
171 1 2 2.12922 1.78663 2.96522
154 1 2 1.93143 1.76073 3.8688
146 1 2 -1.69055 -1.69055 4.76006
147 1 2 -0.914919 -2.20881 4.76006
148 1 2 -4.39182e-16 -2.3908 4.76006
149 1 2 0.914919 -2.20881 4.76006
150 1 2 1.69055 -1.69055 4.76006
145 1 2 -2.20881 -0.914919 4.76006
151 1 2 2.20881 -0.914919 4.76006
144 1 2 -2.3908 2.92788e-16 4.76006
143 1 2 -2.20881 0.914919 4.76006
136 1 2 2.3908 0 4.76006
137 1 2 2.20881 0.914919 4.76006
142 1 2 -1.69055 1.69055 4.76006
141 1 2 -0.914919 2.20881 4.76006
140 1 2 1.46394e-16 2.3908 4.76006
139 1 2 0.914919 2.20881 4.76006
138 1 2 1.69055 1.69055 4.76006
132 1 2 -0.467009 -2.0461 5.63074
131 1 2 -1.30853 -1.64085 5.63074
133 1 2 0.467009 -2.0461 5.63074
134 1 2 1.30853 -1.64085 5.63074
119 1 2 -3.15069e-16 -1.71516 6.46514
130 1 2 -1.89088 -0.9106 5.63074
118 1 2 -0.857579 -1.48537 6.46514
117 1 2 -1.48537 -0.857579 6.46514
120 1 2 0.857579 -1.48537 6.46514
121 1 2 1.48537 -0.857579 6.46514
135 1 2 1.89088 -0.9106 5.63074
129 1 2 -2.09872 2.57019e-16 5.63074
128 1 2 -1.89088 0.9106 5.63074
116 1 2 -1.71516 2.10046e-16 6.46514
115 1 2 -1.48537 0.857579 6.46514
114 1 2 -0.857579 1.48537 6.46514
111 1 2 1.48537 0.857579 6.46514
112 1 2 0.857579 1.48537 6.46514
122 1 2 2.09872 0 5.63074
123 1 2 1.89088 0.9106 5.63074
110 1 2 1.71516 0 6.46514
127 1 2 -1.30853 1.64085 5.63074
126 1 2 -0.467009 2.0461 5.63074
124 1 2 1.30853 1.64085 5.63074
125 1 2 0.467009 2.0461 5.63074
113 1 2 1.05023e-16 1.71516 6.46514
106 1 3 -1.12681 -0.410126 7.22314
107 1 3 -0.599564 -1.03848 7.22314
1 1 1 -0.0532672 -0.101569 7.29147
108 1 3 0.208227 -1.18091 7.22314
109 1 3 0.918586 -0.770785 7.22314
2 1 1 0.428085 -0.283543 8.08243
104 1 3 -0.599564 1.03848 7.22314
105 1 3 -1.12681 0.410126 7.22314
101 1 3 1.19913 0 7.22314
103 1 3 0.208227 1.18091 7.22314
102 1 3 0.918586 0.770785 7.22314
3 1 1 0.718672 -0.120319 9.04979
4 1 1 1.1756 0.22672 9.81991
5 1 1 1.09892 0.194976 10.8493
6 1 1 1.55407 0.642408 11.591
7 1 1 1.91756 1.24189 12.2602
8 1 1 2.02364 1.65628 13.166
9 1 1 1.96052 2.27381 13.9768
10 1 1 1.70972 2.93708 14.5627
11 1 1 1.42896 3.49305 15.3011
12 1 1 1.37197 3.80132 16.2003
13 1 1 1.13043 4.19691 17.0687
15 1 1 -0.158457 5.02947 18.2152
16 1 1 -0.971245 5.25818 18.704
14 1 1 0.593182 4.64193 17.6899
17 1 1 -1.66104 5.49001 19.3784
18 1 1 -1.9888 5.61558 20.1993
19 1 1 -1.80851 5.3359 21.0531
20 1 1 -1.31588 5.37066 21.8695
21 1 1 -0.84756 5.7638 22.6004
22 1 1 -0.234469 5.64204 23.266
23 1 1 -0.012086 6.042 24.1303
24 1 1 -0.397959 6.1429 24.9895
26 1 1 -1.34182 7.69127 25.8075
25 1 1 -0.799698 6.88205 25.5704
27 1 1 -1.94222 8.51932 25.7712
28 1 1 -2.59319 9.17753 25.6479
29 1 1 -3.31121 9.62224 26.1136
31 1 1 -4.38286 9.84678 27.6606
30 1 1 -3.917 9.91681 26.8216
32 1 1 -4.61565 10.2537 28.5303
33 1 1 -4.54837 10.6061 29.4347
34 1 1 -4.70725 11.2323 30.1721
35 1 1 -4.49216 11.6778 30.9435
36 1 1 -4.4839 12.2589 31.7176
37 1 1 -4.3112 12.8114 32.5385
38 1 1 -3.95337 13.2227 33.3498
39 1 1 -3.73629 13.9908 33.9636
40 1 1 -3.6358 14.5135 34.6968
41 1 1 -3.08104 14.8047 35.4357
42 1 1 -2.70465 15.1353 36.1829
43 1 1 -2.04178 15.2973 36.8834
45 1 1 -0.579884 15.3726 38.2581
44 1 1 -1.43571 15.381 37.7106
46 1 1 0.180741 15.573 38.8493
47 1 1 0.993742 15.5773 39.4524
48 1 1 1.43867 15.6923 40.3832
49 1 1 1.998 15.7866 41.1815
50 1 1 2.52079 16.0314 42.004
51 1 1 2.96843 15.9117 42.9344
53 1 1 3.8831 15.3417 44.3964
52 1 1 3.16569 15.7175 43.874
69 1 1 4.56563 4.47556 45.9647
70 1 1 5.3828 3.90051 45.9326
68 1 1 4.11275 5.26664 46.01
67 1 1 3.31477 5.79283 45.6492
65 1 1 2.26447 7.49668 45.6269
66 1 1 2.68009 6.6009 45.5473
64 1 1 2.0599 8.33558 46.0642
54 1 1 4.44174 15.1138 45.1134
55 1 1 4.91544 14.6226 45.7548
72 1 1 6.58642 2.49598 46.3579
73 1 1 7.3058 2.08504 46.7438
75 1 1 8.98495 1.60682 47.6209
74 1 1 8.06925 1.76446 47.2019
71 1 1 5.87395 3.15786 46.252
63 1 1 2.35579 9.25141 46.358
62 1 1 2.84558 9.83266 46.8692
58 1 1 4.2252 12.6246 47.6331
57 1 1 4.6531 13.2551 47.0589
56 1 1 4.72164 14.1332 46.604
76 1 1 9.53039 1.74871 48.3583
77 1 1 10.2556 2.10679 48.8739
61 1 1 3.12156 10.1314 47.7262
60 1 1 3.46186 10.9574 48.1353
59 1 1 3.77068 11.8353 47.9416
78 1 1 10.8324 2.40134 49.5558
79 1 1 11.495 2.41033 50.263
80 1 1 12.299 1.89614 50.4399
95 1 1 5.87802 -7.68015 51.7403
94 1 1 5.99916 -6.81806 51.3243
93 1 1 6.52593 -6.14865 50.9801
92 1 1 7.3697 -5.73611 50.9648
91 1 1 7.94805 -5.03494 51.0761
90 1 1 8.66597 -4.44052 51.0643
89 1 1 9.108 -3.81634 51.6712
88 1 1 9.42678 -2.9462 52.0073
84 1 1 11.9693 -0.533466 52.1877
82 1 1 12.9605 0.963394 51.9832
81 1 1 12.7253 1.54054 51.2621
97 1 1 5.29714 -8.49773 53.322
96 1 1 5.83422 -8.20548 52.6354
87 1 1 9.91759 -2.26772 52.4425
86 1 1 10.3775 -1.43519 52.6029
85 1 1 11.0237 -0.838393 52.2639
83 1 1 12.617 0.139672 52.2814
99 1 1 5.07803 -9.22268 55.0788
98 1 1 5.13309 -9.01512 54.1422
100 1 1 4.98622 -9.74473 55.8932
