ITEM: TIMESTEP
5000
ITEM: NUMBER OF ATOMS
336
ITEM: BOX BOUNDS pp pp pp
-2.0000000000000000e+01 2.0000000000000000e+01
-2.0000000000000000e+01 2.0000000000000000e+01
-2.0000000000000000e+01 1.5000000000000000e+02
ITEM: ATOMS id mol type x y z
311 1 2 -1.73164 -1.73164 -3.51398
312 1 2 -0.937155 -2.26249 -3.51398
326 1 2 -3.20784e-16 -1.74627 -4.1062
313 1 2 -4.49856e-16 -2.4489 -3.51398
314 1 2 0.937155 -2.26249 -3.51398
315 1 2 1.73164 -1.73164 -3.51398
310 1 2 -2.26249 -0.937155 -3.51398
325 1 2 -0.873133 -1.51231 -4.1062
324 1 2 -1.51231 -0.873133 -4.1062
334 1 2 -0.203934 -0.893492 -4.4993
333 1 2 -0.825711 -0.397641 -4.4993
327 1 2 0.873133 -1.51231 -4.1062
335 1 2 0.57141 -0.716525 -4.4993
328 1 2 1.51231 -0.873133 -4.1062
316 1 2 2.26249 -0.937155 -3.51398
323 1 2 -1.74627 2.13856e-16 -4.1062
309 1 2 -2.4489 2.99904e-16 -3.51398
308 1 2 -2.26249 0.937155 -3.51398
332 1 2 -0.825711 0.397641 -4.4993
322 1 2 -1.51231 0.873133 -4.1062
331 1 2 -0.203934 0.893492 -4.4993
321 1 2 -0.873133 1.51231 -4.1062
336 1 2 0 0 -4.64
329 1 2 0.91647 0 -4.4993
330 1 2 0.57141 0.716525 -4.4993
318 1 2 1.51231 0.873133 -4.1062
319 1 2 0.873133 1.51231 -4.1062
317 1 2 1.74627 0 -4.1062
301 1 2 2.4489 0 -3.51398
302 1 2 2.26249 0.937155 -3.51398
307 1 2 -1.73164 1.73164 -3.51398
306 1 2 -0.937155 2.26249 -3.51398
320 1 2 1.06928e-16 1.74627 -4.1062
305 1 2 1.49952e-16 2.4489 -3.51398
304 1 2 0.937155 2.26249 -3.51398
303 1 2 1.73164 1.73164 -3.51398
274 1 2 -1.41332 -3.09473 -1.95157
275 1 2 -0.48418 -3.36755 -1.95157
276 1 2 0.48418 -3.36755 -1.95157
277 1 2 1.41332 -3.09473 -1.95157
294 1 2 -1.76481 -2.42905 -2.77992
293 1 2 -2.42905 -1.76481 -2.77992
273 1 2 -2.22795 -2.57119 -1.95157
272 1 2 -2.86209 -1.83936 -1.95157
295 1 2 -0.927813 -2.85552 -2.77992
296 1 2 -5.51544e-16 -3.00247 -2.77992
297 1 2 0.927813 -2.85552 -2.77992
298 1 2 1.76481 -2.42905 -2.77992
299 1 2 2.42905 -1.76481 -2.77992
278 1 2 2.22795 -2.57119 -1.95157
279 1 2 2.86209 -1.83936 -1.95157
271 1 2 -3.26437 -0.958504 -1.95157
292 1 2 -2.85552 -0.927813 -2.77992
300 1 2 2.85552 -0.927813 -2.77992
280 1 2 3.26437 -0.958504 -1.95157
270 1 2 -3.40218 1.92752e-15 -1.95157
269 1 2 -3.26437 0.958504 -1.95157
291 1 2 -3.00247 3.67696e-16 -2.77992
290 1 2 -2.85552 0.927813 -2.77992
281 1 2 3.00247 0 -2.77992
282 1 2 2.85552 0.927813 -2.77992
259 1 2 3.40218 0 -1.95157
260 1 2 3.26437 0.958504 -1.95157
289 1 2 -2.42905 1.76481 -2.77992
288 1 2 -1.76481 2.42905 -2.77992
268 1 2 -2.86209 1.83936 -1.95157
267 1 2 -2.22795 2.57119 -1.95157
287 1 2 -0.927813 2.85552 -2.77992
285 1 2 0.927813 2.85552 -2.77992
286 1 2 1.83848e-16 3.00247 -2.77992
283 1 2 2.42905 1.76481 -2.77992
284 1 2 1.76481 2.42905 -2.77992
261 1 2 2.86209 1.83936 -1.95157
262 1 2 2.22795 2.57119 -1.95157
266 1 2 -1.41332 3.09473 -1.95157
265 1 2 -0.48418 3.36755 -1.95157
264 1 2 0.48418 3.36755 -1.95157
263 1 2 1.41332 3.09473 -1.95157
251 1 2 -1.82489 -3.16081 -1.06551
252 1 2 -0.944634 -3.52542 -1.06551
253 1 2 -6.70455e-16 -3.64979 -1.06551
254 1 2 0.944634 -3.52542 -1.06551
255 1 2 1.82489 -3.16081 -1.06551
249 1 2 -3.16081 -1.82489 -1.06551
250 1 2 -2.58079 -2.58079 -1.06551
256 1 2 2.58079 -2.58079 -1.06551
257 1 2 3.16081 -1.82489 -1.06551
248 1 2 -3.52542 -0.944634 -1.06551
258 1 2 3.52542 -0.944634 -1.06551
247 1 2 -3.64979 4.4697e-16 -1.06551
246 1 2 -3.52542 0.944634 -1.06551
235 1 2 3.64979 0 -1.06551
236 1 2 3.52542 0.944634 -1.06551
245 1 2 -3.16081 1.82489 -1.06551
244 1 2 -2.58079 2.58079 -1.06551
238 1 2 2.58079 2.58079 -1.06551
237 1 2 3.16081 1.82489 -1.06551
243 1 2 -1.82489 3.16081 -1.06551
242 1 2 -0.944634 3.52542 -1.06551
241 1 2 2.23485e-16 3.64979 -1.06551
240 1 2 0.944634 3.52542 -1.06551
239 1 2 1.82489 3.16081 -1.06551
227 1 2 -1.59583 -3.39131 -0.15079
202 1 2 -1.84913 -3.20279 0.768063
228 1 2 -0.702309 -3.68163 -0.15079
203 1 2 -0.957182 -3.57225 0.768063
229 1 2 0.23534 -3.74062 -0.15079
230 1 2 1.1582 -3.56458 -0.15079
204 1 2 -6.79361e-16 -3.69827 0.768063
205 1 2 0.957182 -3.57225 0.768063
231 1 2 2.00829 -3.16456 -0.15079
206 1 2 1.84913 -3.20279 0.768063
200 1 2 -3.20279 -1.84913 0.768063
226 1 2 -2.38908 -2.8879 -0.15079
225 1 2 -3.03221 -2.20303 -0.15079
201 1 2 -2.61507 -2.61507 0.768063
232 1 2 2.73219 -2.5657 -0.15079
207 1 2 2.61507 -2.61507 0.768063
233 1 2 3.28441 -1.80562 -0.15079
208 1 2 3.20279 -1.84913 0.768063
224 1 2 -3.48482 -1.37974 -0.15079
223 1 2 -3.71847 -0.469751 -0.15079
199 1 2 -3.57225 -0.957182 0.768063
234 1 2 3.63027 -0.932094 -0.15079
209 1 2 3.57225 -0.957182 0.768063
222 1 2 -3.71847 0.469751 -0.15079
221 1 2 -3.48482 1.37974 -0.15079
198 1 2 -3.69827 4.52907e-16 0.768063
197 1 2 -3.57225 0.957182 0.768063
210 1 2 3.74802 0 -0.15079
211 1 2 3.63027 0.932094 -0.15079
186 1 2 3.69827 0 0.768063
187 1 2 3.57225 0.957182 0.768063
196 1 2 -3.20279 1.84913 0.768063
220 1 2 -3.03221 2.20303 -0.15079
219 1 2 -2.38908 2.8879 -0.15079
195 1 2 -2.61507 2.61507 0.768063
213 1 2 2.73219 2.5657 -0.15079
189 1 2 2.61507 2.61507 0.768063
212 1 2 3.28441 1.80562 -0.15079
188 1 2 3.20279 1.84913 0.768063
218 1 2 -1.59583 3.39131 -0.15079
194 1 2 -1.84913 3.20279 0.768063
217 1 2 -0.702309 3.68163 -0.15079
193 1 2 -0.957182 3.57225 0.768063
215 1 2 1.1582 3.56458 -0.15079
216 1 2 0.23534 3.74062 -0.15079
191 1 2 0.957182 3.57225 0.768063
192 1 2 2.26454e-16 3.69827 0.768063
214 1 2 2.00829 3.16456 -0.15079
190 1 2 1.84913 3.20279 0.768063
179 1 2 -1.17199 -3.29767 1.66663
180 1 2 -0.238831 -3.49159 1.66663
181 1 2 0.712044 -3.42655 1.66663
158 1 2 0.235402 -3.14123 2.51754
182 1 2 1.61011 -3.10737 1.66663
178 1 2 -2.01823 -2.85919 1.66663
177 1 2 -2.71479 -2.20865 1.66663
155 1 2 -2.30914 -2.14257 2.51754
156 1 2 -1.57502 -2.72801 2.51754
157 1 2 -0.700949 -3.07106 2.51754
159 1 2 1.15084 -2.93228 2.51754
183 1 2 2.38876 -2.55774 1.66663
184 1 2 2.99025 -1.81841 1.66663
160 1 2 1.96401 -2.4628 2.51754
161 1 2 2.60268 -1.77448 2.51754
176 1 2 -3.21001 -1.3943 1.66663
175 1 2 -3.46715 -0.476549 1.66663
153 1 2 -3.11485 -0.469488 2.51754
154 1 2 -2.83808 -1.36675 2.51754
162 1 2 3.01009 -0.928489 2.51754
185 1 2 3.36997 -0.94422 1.66663
174 1 2 -3.46715 0.476549 1.66663
173 1 2 -3.21001 1.3943 1.66663
152 1 2 -3.11485 0.469488 2.51754
151 1 2 -2.83808 1.36675 2.51754
143 1 2 3.01009 0.928489 2.51754
163 1 2 3.49975 0 1.66663
164 1 2 3.36997 0.94422 1.66663
142 1 2 3.15003 0 2.51754
172 1 2 -2.71479 2.20865 1.66663
171 1 2 -2.01823 2.85919 1.66663
150 1 2 -2.30914 2.14257 2.51754
149 1 2 -1.57502 2.72801 2.51754
148 1 2 -0.700949 3.07106 2.51754
146 1 2 1.15084 2.93228 2.51754
165 1 2 2.99025 1.81841 1.66663
166 1 2 2.38876 2.55774 1.66663
144 1 2 2.60268 1.77448 2.51754
145 1 2 1.96401 2.4628 2.51754
170 1 2 -1.17199 3.29767 1.66663
169 1 2 -0.238831 3.49159 1.66663
168 1 2 0.712044 3.42655 1.66663
147 1 2 0.235402 3.14123 2.51754
167 1 2 1.61011 3.10737 1.66663
135 1 2 -2.02742 -1.70121 3.2872
136 1 2 -1.32331 -2.29203 3.2872
137 1 2 -0.459579 -2.6064 3.2872
119 1 2 -1.24156 -1.55687 3.93176
120 1 2 -0.443109 -1.94139 3.93176
138 1 2 0.459579 -2.6064 3.2872
139 1 2 1.32331 -2.29203 3.2872
121 1 2 0.443109 -1.94139 3.93176
122 1 2 1.24156 -1.55687 3.93176
140 1 2 2.02742 -1.70121 3.2872
134 1 2 -2.487 -0.905195 3.2872
118 1 2 -1.79411 -0.863998 3.93176
141 1 2 2.487 -0.905195 3.2872
123 1 2 1.79411 -0.863998 3.93176
133 1 2 -2.64661 3.24117e-16 3.2872
132 1 2 -2.487 0.905195 3.2872
117 1 2 -1.99131 2.43865e-16 3.93176
116 1 2 -1.79411 0.863998 3.93176
124 1 2 2.64661 0 3.2872
125 1 2 2.487 0.905195 3.2872
110 1 2 1.99131 0 3.93176
111 1 2 1.79411 0.863998 3.93176
131 1 2 -2.02742 1.70121 3.2872
130 1 2 -1.32331 2.29203 3.2872
129 1 2 -0.459579 2.6064 3.2872
115 1 2 -1.24156 1.55687 3.93176
114 1 2 -0.443109 1.94139 3.93176
128 1 2 0.459579 2.6064 3.2872
127 1 2 1.32331 2.29203 3.2872
113 1 2 0.443109 1.94139 3.93176
112 1 2 1.24156 1.55687 3.93176
126 1 2 2.02742 1.70121 3.2872
106 1 3 -1.12686 -0.410145 4.39636
107 1 3 -0.599592 -1.03852 4.39636
108 1 3 0.208236 -1.18097 4.39636
109 1 3 0.918629 -0.770821 4.39636
1 1 1 0.171347 -0.042489 4.45995
104 1 3 -0.599592 1.03852 4.39636
105 1 3 -1.12686 0.410145 4.39636
2 1 1 0.342123 0.209117 5.41657
101 1 3 1.19918 0 4.39636
103 1 3 0.208236 1.18097 4.39636
102 1 3 0.918629 0.770821 4.39636
3 1 1 0.438963 0.205376 6.37039
4 1 1 0.412624 0.444943 7.31206
5 1 1 0.631801 0.429199 8.23712
6 1 1 0.977605 0.744621 8.99846
7 1 1 1.0391 1.28975 9.82321
8 1 1 1.35979 1.81473 10.5282
9 1 1 1.42712 2.5898 11.1911
10 1 1 0.973608 2.94212 11.967
11 1 1 0.458212 2.97659 12.7695
13 1 1 0.102928 4.34862 14.0921
12 1 1 0.285897 3.70764 13.3994
14 1 1 -0.390926 4.77354 14.8602
15 1 1 -1.00745 5.19811 15.4611
17 1 1 -2.17982 5.38009 16.9492
16 1 1 -1.56446 5.44383 16.2317
18 1 1 -2.12847 5.30967 17.9754
19 1 1 -1.98003 5.15249 18.9647
20 1 1 -1.49106 5.35475 19.7284
21 1 1 -0.924005 5.47363 20.4749
22 1 1 -0.410552 5.35898 21.2563
23 1 1 0.014625 5.19478 22.072
25 1 1 -0.617842 6.02772 23.4501
24 1 1 0.00235862 5.45159 22.9808
27 1 1 -1.49724 7.53491 24.3117
26 1 1 -1.1478 6.68662 23.9837
30 1 1 -3.20875 9.10875 25.0379
28 1 1 -1.85508 8.35209 24.0015
29 1 1 -2.42563 8.91997 24.5575
32 1 1 -4.31171 9.18426 26.5467
31 1 1 -3.91284 9.3491 25.6202
34 1 1 -4.65137 10.3062 28.0199
33 1 1 -4.56449 9.60009 27.3401
35 1 1 -4.48253 10.8699 28.7121
36 1 1 -4.21228 11.3881 29.5313
37 1 1 -4.15955 11.6641 30.4655
38 1 1 -4.06147 12.1899 31.3054
39 1 1 -3.74658 12.7341 32.1056
40 1 1 -3.7551 13.097 32.9864
41 1 1 -3.16665 13.0722 33.8117
42 1 1 -2.78631 13.0267 34.6074
43 1 1 -2.1186 12.9427 35.2745
44 1 1 -1.40662 12.5813 35.927
45 1 1 -0.622746 12.4253 36.6026
46 1 1 0.250687 12.3169 36.9711
48 1 1 1.47328 12.1938 38.3929
47 1 1 0.879342 12.4568 37.7259
49 1 1 2.19915 11.9084 38.862
50 1 1 2.90506 12.0039 39.4789
60 1 1 5.87059 5.27721 41.5778
59 1 1 6.30294 6.11807 41.5033
58 1 1 6.70633 6.98061 41.6416
57 1 1 6.87828 7.94408 41.5258
56 1 1 6.73338 8.84571 41.2811
53 1 1 4.55052 10.5345 41.0274
55 1 1 6.08265 9.45292 41.0786
54 1 1 5.4799 10.1936 41.1119
51 1 1 3.39619 11.6277 40.2043
52 1 1 3.96429 11.2415 40.875
100 1 1 8.44542 -7.85828 41.7736
99 1 1 8.10247 -7.38096 42.5924
63 1 1 3.92393 4.53412 42.8679
62 1 1 4.89409 4.36231 42.8308
61 1 1 5.64671 4.67068 42.2553
98 1 1 8.09521 -7.12975 43.5058
97 1 1 8.15937 -6.79503 44.4311
88 1 1 11.5242 -0.757468 44.4772
87 1 1 11.7401 0.142855 44.5952
86 1 1 11.6607 1.13796 44.6559
65 1 1 2.37981 4.5216 44.102
64 1 1 3.14829 4.53341 43.4598
66 1 1 1.57561 4.91674 44.4782
96 1 1 8.67365 -6.24504 45.0457
95 1 1 8.94313 -5.5157 45.7029
91 1 1 10.7394 -2.87184 46.1297
90 1 1 11.1494 -2.47821 45.3072
89 1 1 11.4052 -1.6711 44.8358
85 1 1 11.2176 1.9832 44.9923
84 1 1 11.0867 2.8644 45.2516
83 1 1 10.6851 3.65554 45.6138
67 1 1 1.13845 5.41932 45.1548
68 1 1 0.862244 6.08676 45.7778
82 1 1 10.5302 4.62538 45.8556
94 1 1 9.15947 -4.97079 46.4404
92 1 1 10.1646 -3.42667 46.7468
93 1 1 9.72834 -4.27828 46.8256
81 1 1 10.3273 5.43946 46.38
80 1 1 9.53567 5.96263 46.8731
69 1 1 0.761192 6.39784 46.7541
70 1 1 1.41457 6.505 47.4078
79 1 1 8.91896 6.33967 47.5166
78 1 1 8.01534 6.61752 47.5101
71 1 1 2.18621 6.80758 48.0717
72 1 1 2.95837 7.32307 48.3939
75 1 1 5.53208 7.36789 48.6196
77 1 1 7.1611 6.94636 47.7357
76 1 1 6.36152 7.06122 48.254
73 1 1 3.7107 7.94325 48.1716
74 1 1 4.64305 7.80366 48.4805
