ITEM: TIMESTEP
5000
ITEM: NUMBER OF ATOMS
344
ITEM: BOX BOUNDS pp pp pp
-2.0000000000000000e+01 2.0000000000000000e+01
-2.0000000000000000e+01 2.0000000000000000e+01
-2.0000000000000000e+01 1.5000000000000000e+02
ITEM: ATOMS id mol type x y z
342 1 2 -0.20187 -0.884451 -5.22511
341 1 2 -0.817355 -0.393618 -5.22511
343 1 2 0.565628 -0.709274 -5.22511
340 1 2 -0.817355 0.393618 -5.22511
339 1 2 -0.20187 0.884451 -5.22511
344 1 2 0 0 -5.41
337 1 2 0.907196 0 -5.22511
338 1 2 0.565628 0.709274 -5.22511
319 1 2 -1.63262 -1.63262 -4.06587
320 1 2 -0.88357 -2.13313 -4.06587
334 1 2 -3.09703e-16 -1.68595 -4.74098
321 1 2 -4.24134e-16 -2.30888 -4.06587
322 1 2 0.88357 -2.13313 -4.06587
323 1 2 1.63262 -1.63262 -4.06587
318 1 2 -2.13313 -0.88357 -4.06587
333 1 2 -0.842974 -1.46007 -4.74098
332 1 2 -1.46007 -0.842974 -4.74098
335 1 2 0.842974 -1.46007 -4.74098
336 1 2 1.46007 -0.842974 -4.74098
324 1 2 2.13313 -0.88357 -4.06587
331 1 2 -1.68595 2.06469e-16 -4.74098
317 1 2 -2.30888 2.82756e-16 -4.06587
316 1 2 -2.13313 0.88357 -4.06587
330 1 2 -1.46007 0.842974 -4.74098
329 1 2 -0.842974 1.46007 -4.74098
326 1 2 1.46007 0.842974 -4.74098
327 1 2 0.842974 1.46007 -4.74098
325 1 2 1.68595 0 -4.74098
309 1 2 2.30888 0 -4.06587
310 1 2 2.13313 0.88357 -4.06587
315 1 2 -1.63262 1.63262 -4.06587
314 1 2 -0.88357 2.13313 -4.06587
328 1 2 1.03234e-16 1.68595 -4.74098
313 1 2 1.41378e-16 2.30888 -4.06587
312 1 2 0.88357 2.13313 -4.06587
311 1 2 1.63262 1.63262 -4.06587
286 1 2 0.233783 -3.11962 -2.42599
302 1 2 -2.13263 -1.78949 -3.27881
283 1 2 -2.29326 -2.12783 -2.42599
284 1 2 -1.56418 -2.70925 -2.42599
303 1 2 -1.39198 -2.41097 -3.27881
304 1 2 -0.483429 -2.74166 -3.27881
285 1 2 -0.696128 -3.04993 -2.42599
305 1 2 0.483429 -2.74166 -3.27881
306 1 2 1.39198 -2.41097 -3.27881
287 1 2 1.14292 -2.91212 -2.42599
307 1 2 2.13263 -1.78949 -3.27881
288 1 2 1.95051 -2.44586 -2.42599
289 1 2 2.58478 -1.76227 -2.42599
281 1 2 -3.09343 -0.466259 -2.42599
301 1 2 -2.61606 -0.952168 -3.27881
282 1 2 -2.81856 -1.35735 -2.42599
308 1 2 2.61606 -0.952168 -3.27881
290 1 2 2.98939 -0.922103 -2.42599
280 1 2 -3.09343 0.466259 -2.42599
300 1 2 -2.78395 3.40936e-16 -3.27881
299 1 2 -2.61606 0.952168 -3.27881
279 1 2 -2.81856 1.35735 -2.42599
291 1 2 2.78395 0 -3.27881
292 1 2 2.61606 0.952168 -3.27881
271 1 2 2.98939 0.922103 -2.42599
270 1 2 3.12837 0 -2.42599
298 1 2 -2.13263 1.78949 -3.27881
278 1 2 -2.29326 2.12783 -2.42599
277 1 2 -1.56418 2.70925 -2.42599
297 1 2 -1.39198 2.41097 -3.27881
296 1 2 -0.483429 2.74166 -3.27881
276 1 2 -0.696128 3.04993 -2.42599
295 1 2 0.483429 2.74166 -3.27881
294 1 2 1.39198 2.41097 -3.27881
274 1 2 1.14292 2.91212 -2.42599
293 1 2 2.13263 1.78949 -3.27881
272 1 2 2.58478 1.76227 -2.42599
273 1 2 1.95051 2.44586 -2.42599
275 1 2 0.233783 3.11962 -2.42599
264 1 2 -0.477643 -3.32208 -1.53457
241 1 2 -1.1643 -3.27601 -0.622412
242 1 2 -0.237262 -3.46865 -0.622412
265 1 2 0.477643 -3.32208 -1.53457
243 1 2 0.707368 -3.40404 -0.622412
244 1 2 1.59954 -3.08696 -0.622412
262 1 2 -2.19787 -2.53648 -1.53457
261 1 2 -2.82345 -1.81452 -1.53457
239 1 2 -2.69696 -2.19414 -0.622412
240 1 2 -2.00498 -2.84041 -0.622412
263 1 2 -1.39423 -3.05295 -1.53457
266 1 2 1.39423 -3.05295 -1.53457
267 1 2 2.19787 -2.53648 -1.53457
268 1 2 2.82345 -1.81452 -1.53457
245 1 2 2.37307 -2.54094 -0.622412
246 1 2 2.97061 -1.80647 -0.622412
260 1 2 -3.22029 -0.945563 -1.53457
238 1 2 -3.18892 -1.38514 -0.622412
237 1 2 -3.44438 -0.473419 -0.622412
269 1 2 3.22029 -0.945563 -1.53457
247 1 2 3.34783 -0.938019 -0.622412
259 1 2 -3.35624 1.90149e-15 -1.53457
258 1 2 -3.22029 0.945563 -1.53457
236 1 2 -3.44438 0.473419 -0.622412
235 1 2 -3.18892 1.38514 -0.622412
248 1 2 3.35624 0 -1.53457
249 1 2 3.22029 0.945563 -1.53457
225 1 2 3.47676 0 -0.622412
226 1 2 3.34783 0.938019 -0.622412
257 1 2 -2.82345 1.81452 -1.53457
256 1 2 -2.19787 2.53648 -1.53457
234 1 2 -2.69696 2.19414 -0.622412
233 1 2 -2.00498 2.84041 -0.622412
255 1 2 -1.39423 3.05295 -1.53457
252 1 2 1.39423 3.05295 -1.53457
250 1 2 2.82345 1.81452 -1.53457
251 1 2 2.19787 2.53648 -1.53457
227 1 2 2.97061 1.80647 -0.622412
228 1 2 2.37307 2.54094 -0.622412
254 1 2 -0.477643 3.32208 -1.53457
232 1 2 -1.1643 3.27601 -0.622412
231 1 2 -0.237262 3.46865 -0.622412
253 1 2 0.477643 3.32208 -1.53457
230 1 2 0.707368 3.40404 -0.622412
229 1 2 1.59954 3.08696 -0.622412
218 1 2 -1.17031 -3.29293 0.29738
219 1 2 -0.238487 -3.48656 0.29738
220 1 2 0.711019 -3.42161 0.29738
221 1 2 1.60779 -3.1029 0.29738
216 1 2 -2.71088 -2.20547 0.29738
217 1 2 -2.01533 -2.85507 0.29738
222 1 2 2.38532 -2.55406 0.29738
223 1 2 2.98595 -1.81579 0.29738
215 1 2 -3.20539 -1.3923 0.29738
214 1 2 -3.46216 -0.475863 0.29738
224 1 2 3.36512 -0.942861 0.29738
213 1 2 -3.46216 0.475863 0.29738
212 1 2 -3.20539 1.3923 0.29738
202 1 2 3.49471 0 0.29738
203 1 2 3.36512 0.942861 0.29738
211 1 2 -2.71088 2.20547 0.29738
210 1 2 -2.01533 2.85507 0.29738
204 1 2 2.98595 1.81579 0.29738
205 1 2 2.38532 2.55406 0.29738
209 1 2 -1.17031 3.29293 0.29738
208 1 2 -0.238487 3.48656 0.29738
207 1 2 0.711019 3.42161 0.29738
206 1 2 1.60779 3.1029 0.29738
195 1 2 -1.41688 -3.10254 1.21384
196 1 2 -0.485402 -3.37605 1.21384
174 1 2 -0.716889 -3.1409 2.11421
197 1 2 0.485402 -3.37605 1.21384
198 1 2 1.41688 -3.10254 1.21384
175 1 2 0.240756 -3.21266 2.11421
194 1 2 -2.23358 -2.57768 1.21384
193 1 2 -2.86932 -1.844 1.21384
172 1 2 -2.36165 -2.19129 2.11421
173 1 2 -1.61084 -2.79005 2.11421
176 1 2 1.17701 -2.99897 2.11421
199 1 2 2.23358 -2.57768 1.21384
200 1 2 2.86932 -1.844 1.21384
177 1 2 2.00868 -2.5188 2.11421
178 1 2 2.66187 -1.81483 2.11421
192 1 2 -3.2726 -0.960923 1.21384
170 1 2 -3.18569 -0.480165 2.11421
171 1 2 -2.90262 -1.39783 2.11421
201 1 2 3.2726 -0.960923 1.21384
179 1 2 3.07854 -0.949604 2.11421
191 1 2 -3.41076 1.93238e-15 1.21384
190 1 2 -3.2726 0.960923 1.21384
169 1 2 -3.18569 0.480165 2.11421
168 1 2 -2.90262 1.39783 2.11421
180 1 2 3.41076 0 1.21384
181 1 2 3.2726 0.960923 1.21384
159 1 2 3.22167 0 2.11421
160 1 2 3.07854 0.949604 2.11421
189 1 2 -2.86932 1.844 1.21384
188 1 2 -2.23358 2.57768 1.21384
167 1 2 -2.36165 2.19129 2.11421
166 1 2 -1.61084 2.79005 2.11421
163 1 2 1.17701 2.99897 2.11421
182 1 2 2.86932 1.844 1.21384
183 1 2 2.23358 2.57768 1.21384
161 1 2 2.66187 1.81483 2.11421
162 1 2 2.00868 2.5188 2.11421
187 1 2 -1.41688 3.10254 1.21384
186 1 2 -0.485402 3.37605 1.21384
165 1 2 -0.716889 3.1409 2.11421
185 1 2 0.485402 3.37605 1.21384
184 1 2 1.41688 3.10254 1.21384
164 1 2 0.240756 3.21266 2.11421
152 1 2 -1.97748 -2.14812 2.98332
154 1 2 -0.24111 -2.90977 2.98332
153 1 2 -1.17285 -2.67382 2.98332
135 1 2 -0.682141 -2.39748 3.7978
134 1 2 -1.50215 -1.98916 3.7978
155 1 2 0.716753 -2.83039 2.98332
136 1 2 0.229991 -2.482 3.7978
137 1 2 1.11106 -2.23131 3.7978
156 1 2 1.59695 -2.44431 2.98332
157 1 2 2.30408 -1.79334 2.98332
138 1 2 1.84208 -1.67928 3.7978
151 1 2 -2.56783 -1.38964 2.98332
150 1 2 -2.87992 -0.480573 2.98332
133 1 2 -2.11928 -1.3122 3.7978
132 1 2 -2.45019 -0.45802 3.7978
158 1 2 2.76154 -0.948037 2.98332
139 1 2 2.32431 -0.900443 3.7978
149 1 2 -2.87992 0.480573 2.98332
148 1 2 -2.56783 1.38964 2.98332
131 1 2 -2.45019 0.45802 3.7978
130 1 2 -2.11928 1.3122 3.7978
140 1 2 2.91974 0 2.98332
141 1 2 2.76154 0.948037 2.98332
123 1 2 2.49263 0 3.7978
124 1 2 2.32431 0.900443 3.7978
147 1 2 -1.97748 2.14812 2.98332
146 1 2 -1.17285 2.67382 2.98332
145 1 2 -0.24111 2.90977 2.98332
129 1 2 -1.50215 1.98916 3.7978
128 1 2 -0.682141 2.39748 3.7978
144 1 2 0.716753 2.83039 2.98332
127 1 2 0.229991 2.482 3.7978
126 1 2 1.11106 2.23131 3.7978
142 1 2 2.30408 1.79334 2.98332
143 1 2 1.59695 2.44431 2.98332
125 1 2 1.84208 1.67928 3.7978
119 1 2 -0.682133 -1.79864 4.51962
120 1 2 0.23187 -1.90962 4.51962
121 1 2 1.09275 -1.58313 4.51962
117 1 2 -1.86775 -0.460358 4.51962
118 1 2 -1.43987 -1.27561 4.51962
106 1 3 -1.12684 -0.410135 5.08256
107 1 3 -0.599578 -1.0385 5.08256
1 1 1 -0.0577789 -0.00413203 5.09664
108 1 3 0.208231 -1.18094 5.08256
109 1 3 0.918607 -0.770803 5.08256
122 1 2 1.7033 -0.893961 4.51962
116 1 2 -1.86775 0.460358 4.51962
104 1 3 -0.599578 1.0385 5.08256
105 1 3 -1.12684 0.410135 5.08256
115 1 2 -1.43987 1.27561 4.51962
101 1 3 1.19916 0 5.08256
103 1 3 0.208231 1.18094 5.08256
102 1 3 0.918607 0.770803 5.08256
110 1 2 1.92364 0 4.51962
111 1 2 1.7033 0.893961 4.51962
114 1 2 -0.682133 1.79864 4.51962
113 1 2 0.23187 1.90962 4.51962
112 1 2 1.09275 1.58313 4.51962
2 1 1 0.0588977 0.175087 6.02621
3 1 1 0.202095 0.338334 6.93794
4 1 1 0.481109 0.673597 7.80481
5 1 1 0.805554 0.837261 8.66756
6 1 1 1.45992 1.29528 9.12442
7 1 1 1.83782 1.76836 9.95255
8 1 1 2.04884 2.03045 10.824
9 1 1 1.94802 2.62145 11.617
10 1 1 1.81506 2.82664 12.5052
11 1 1 1.65279 3.02045 13.4529
12 1 1 1.5666 3.17298 14.3986
13 1 1 0.916939 3.52902 15.0951
14 1 1 0.225607 3.80781 15.6735
15 1 1 -0.23369 4.48219 16.1834
16 1 1 -0.891986 5.00572 16.5689
17 1 1 -1.3978 5.23717 17.3632
18 1 1 -1.58184 5.25541 18.2688
19 1 1 -1.64768 5.20093 19.1753
20 1 1 -1.04548 5.19524 19.9733
21 1 1 -0.492461 5.27129 20.7973
22 1 1 -0.118198 5.27213 21.6825
24 1 1 -0.0328335 5.70481 23.5362
23 1 1 0.0413941 5.33671 22.6047
25 1 1 -0.524069 6.4223 23.8693
26 1 1 -1.06113 7.21749 23.7434
27 1 1 -1.61989 8.03205 23.7829
28 1 1 -2.13358 8.82526 23.8023
30 1 1 -3.6377 9.44921 24.9303
29 1 1 -2.82941 9.28884 24.4033
32 1 1 -4.32733 9.93717 26.6138
31 1 1 -4.12158 9.69723 25.6952
33 1 1 -4.54597 10.5608 27.4003
34 1 1 -4.18729 11.0603 28.1515
35 1 1 -3.69373 11.3285 28.9683
36 1 1 -3.37826 11.7686 29.7105
37 1 1 -3.40916 12.2405 30.5937
38 1 1 -3.18413 12.7607 31.3618
39 1 1 -3.12585 13.5535 32.1582
40 1 1 -2.77583 14.1781 32.8707
41 1 1 -2.45283 14.6877 33.6218
42 1 1 -2.15605 14.8878 34.5024
43 1 1 -1.64274 15.0814 35.2453
44 1 1 -1.08161 15.0327 36.0311
45 1 1 -0.391082 15.0012 36.7112
46 1 1 0.262044 15.1379 37.4347
47 1 1 0.948967 15.5935 38.0306
48 1 1 1.37686 15.9748 38.8554
49 1 1 2.02554 16.077 39.5925
50 1 1 2.57035 16.1719 40.3482
51 1 1 3.03381 16.172 41.1961
54 1 1 4.9187 14.843 42.5952
55 1 1 5.62319 14.3662 42.9796
53 1 1 4.29406 15.4218 42.2951
52 1 1 3.5504 15.6679 41.7593
67 1 1 3.65353 5.14841 44.2189
66 1 1 3.80964 6.05596 43.9707
65 1 1 4.21322 6.96317 44.0122
64 1 1 4.68747 7.75277 44.3098
57 1 1 6.27919 13.4018 44.3131
56 1 1 6.34586 13.962 43.5264
80 1 1 5.25633 -6.24249 46.1231
78 1 1 4.05825 -4.71923 45.5181
79 1 1 4.72561 -5.40717 45.9987
77 1 1 3.50881 -4.04959 45.1856
76 1 1 3.27585 -3.07041 45.1505
75 1 1 3.31203 -2.0319 45.269
74 1 1 3.32612 -1.12929 45.1129
73 1 1 3.49925 -0.214928 45.1733
72 1 1 3.35386 0.756929 45.2676
70 1 1 3.03123 2.61748 45.0619
71 1 1 3.17772 1.68124 45.3577
69 1 1 3.03632 3.53006 44.8363
68 1 1 3.3073 4.43779 44.7303
63 1 1 5.37132 8.21967 44.7179
62 1 1 5.83664 8.98563 45.0788
61 1 1 6.26171 9.83395 45.3293
60 1 1 6.32824 10.7574 45.305
59 1 1 6.41242 11.6968 45.1116
58 1 1 6.50073 12.5854 44.7756
81 1 1 5.97898 -6.59156 46.6661
82 1 1 6.66069 -6.81533 47.3119
83 1 1 7.61089 -6.7105 47.713
84 1 1 8.4669 -6.55882 48.2427
85 1 1 9.07979 -6.18623 48.8533
86 1 1 9.44489 -5.51351 49.4593
87 1 1 9.41266 -4.75476 50.0363
88 1 1 9.2811 -3.8176 50.4135
89 1 1 9.53089 -2.89322 50.0533
90 1 1 9.60395 -1.91969 50.0242
92 1 1 8.93519 -0.206185 50.068
91 1 1 9.07916 -1.06823 49.6492
93 1 1 9.19888 0.655861 50.4232
94 1 1 9.45709 1.56873 50.6537
95 1 1 9.33231 2.35784 51.1989
96 1 1 9.71451 3.09141 51.7673
97 1 1 9.81774 3.59182 52.6251
98 1 1 10.116 4.04714 53.4065
99 1 1 10.1339 4.18885 54.3257
100 1 1 10.583 4.15732 55.2028
