ITEM: TIMESTEP
5000
ITEM: NUMBER OF ATOMS
500
ITEM: BOX BOUNDS pp pp pp
-2.0000000000000000e+01 2.0000000000000000e+01
-2.0000000000000000e+01 2.0000000000000000e+01
-2.0000000000000000e+01 1.5000000000000000e+02
ITEM: ATOMS id mol type x y z
498 1 2 -0.552597 -0.401486 -14.4276
499 1 2 0.211073 -0.649617 -14.4276
497 1 2 -0.552597 0.401486 -14.4276
500 1 2 0 0 -15.05
495 1 2 0.683048 0 -14.4276
496 1 2 0.211073 0.649617 -14.4276
492 1 2 -0.73983 -0.73983 -13.5446
483 1 2 -1.22761 -0.446814 -12.625
484 1 2 -0.653198 -1.13137 -12.625
493 1 2 -1.92198e-16 -1.04628 -13.5446
494 1 2 0.73983 -0.73983 -13.5446
485 1 2 0.226853 -1.28655 -12.625
486 1 2 1.00076 -0.839736 -12.625
491 1 2 -1.04628 1.28132e-16 -13.5446
490 1 2 -0.73983 0.73983 -13.5446
482 1 2 -1.22761 0.446814 -12.625
481 1 2 -0.653198 1.13137 -12.625
487 1 2 1.04628 0 -13.5446
489 1 2 6.4066e-17 1.04628 -13.5446
488 1 2 0.73983 0.73983 -13.5446
478 1 2 1.3064 0 -12.625
479 1 2 1.00076 0.839736 -12.625
480 1 2 0.226853 1.28655 -12.625
475 1 2 -0.467026 -1.43736 -11.6912
474 1 2 -1.22269 -0.888336 -11.6912
476 1 2 0.467026 -1.43736 -11.6912
477 1 2 1.22269 -0.888336 -11.6912
473 1 2 -1.51133 1.85084e-16 -11.6912
472 1 2 -1.22269 0.888336 -11.6912
471 1 2 -0.467026 1.43736 -11.6912
468 1 2 1.51133 0 -11.6912
469 1 2 1.22269 0.888336 -11.6912
470 1 2 0.467026 1.43736 -11.6912
452 1 2 -0.910422 -1.5769 -9.80443
465 1 2 -3.08546e-16 -1.67965 -10.75
453 1 2 -3.34484e-16 -1.82084 -9.80443
454 1 2 0.910422 -1.5769 -9.80443
451 1 2 -1.5769 -0.910422 -9.80443
464 1 2 -0.839824 -1.45462 -10.75
463 1 2 -1.45462 -0.839824 -10.75
466 1 2 0.839824 -1.45462 -10.75
467 1 2 1.45462 -0.839824 -10.75
455 1 2 1.5769 -0.910422 -9.80443
462 1 2 -1.67965 2.05698e-16 -10.75
450 1 2 -1.82084 2.22989e-16 -9.80443
449 1 2 -1.5769 0.910422 -9.80443
461 1 2 -1.45462 0.839824 -10.75
460 1 2 -0.839824 1.45462 -10.75
457 1 2 1.45462 0.839824 -10.75
458 1 2 0.839824 1.45462 -10.75
456 1 2 1.67965 0 -10.75
444 1 2 1.82084 0 -9.80443
445 1 2 1.5769 0.910422 -9.80443
448 1 2 -0.910422 1.5769 -9.80443
459 1 2 1.02849e-16 1.67965 -10.75
447 1 2 1.11495e-16 1.82084 -9.80443
446 1 2 0.910422 1.5769 -9.80443
440 1 2 -0.688122 -1.81443 -8.85572
441 1 2 0.233905 -1.92638 -8.85572
442 1 2 1.10235 -1.59703 -8.85572
438 1 2 -1.88414 -0.4644 -8.85572
439 1 2 -1.45251 -1.28681 -8.85572
443 1 2 1.71826 -0.90181 -8.85572
437 1 2 -1.88414 0.4644 -8.85572
436 1 2 -1.45251 1.28681 -8.85572
431 1 2 1.94053 0 -8.85572
432 1 2 1.71826 0.90181 -8.85572
435 1 2 -0.688122 1.81443 -8.85572
434 1 2 0.233905 1.92638 -8.85572
433 1 2 1.10235 1.59703 -8.85572
426 1 2 -1.27334 -1.59672 -7.90495
427 1 2 -0.45445 -1.99108 -7.90495
413 1 2 -0.47365 -2.07519 -6.9525
412 1 2 -1.32714 -1.66418 -6.9525
428 1 2 0.45445 -1.99108 -7.90495
429 1 2 1.27334 -1.59672 -7.90495
414 1 2 0.47365 -2.07519 -6.9525
415 1 2 1.32714 -1.66418 -6.9525
425 1 2 -1.84003 -0.886113 -7.90495
411 1 2 -1.91777 -0.923548 -6.9525
430 1 2 1.84003 -0.886113 -7.90495
416 1 2 1.91777 -0.923548 -6.9525
424 1 2 -2.04228 2.50107e-16 -7.90495
423 1 2 -1.84003 0.886113 -7.90495
410 1 2 -2.12856 2.60674e-16 -6.9525
409 1 2 -1.91777 0.923548 -6.9525
417 1 2 2.04228 0 -7.90495
418 1 2 1.84003 0.886113 -7.90495
403 1 2 2.12856 0 -6.9525
404 1 2 1.91777 0.923548 -6.9525
422 1 2 -1.27334 1.59672 -7.90495
421 1 2 -0.45445 1.99108 -7.90495
408 1 2 -1.32714 1.66418 -6.9525
407 1 2 -0.47365 2.07519 -6.9525
420 1 2 0.45445 1.99108 -7.90495
419 1 2 1.27334 1.59672 -7.90495
405 1 2 1.32714 1.66418 -6.9525
406 1 2 0.47365 2.07519 -6.9525
399 1 2 -0.230076 -2.18903 -5.99912
398 1 2 -1.10054 -1.9062 -5.99912
384 1 2 -0.236356 -2.24878 -5.04456
383 1 2 -1.13058 -1.95823 -5.04456
400 1 2 0.680173 -2.09336 -5.99912
401 1 2 1.47281 -1.63573 -5.99912
385 1 2 0.698738 -2.15049 -5.04456
386 1 2 1.51301 -1.68037 -5.04456
397 1 2 -1.78072 -1.29377 -5.99912
396 1 2 -2.15299 -0.457632 -5.99912
382 1 2 -1.82932 -1.32908 -5.04456
381 1 2 -2.21175 -0.470122 -5.04456
402 1 2 2.01079 -0.895263 -5.99912
387 1 2 2.06568 -0.919698 -5.04456
395 1 2 -2.15299 0.457632 -5.99912
394 1 2 -1.78072 1.29377 -5.99912
380 1 2 -2.21175 0.470122 -5.04456
379 1 2 -1.82932 1.32908 -5.04456
388 1 2 2.20109 0 -5.99912
389 1 2 2.01079 0.895263 -5.99912
373 1 2 2.26116 0 -5.04456
374 1 2 2.06568 0.919698 -5.04456
393 1 2 -1.10054 1.9062 -5.99912
392 1 2 -0.230076 2.18903 -5.99912
378 1 2 -1.13058 1.95823 -5.04456
377 1 2 -0.236356 2.24878 -5.04456
390 1 2 1.47281 1.63573 -5.99912
391 1 2 0.680173 2.09336 -5.99912
375 1 2 1.51301 1.68037 -5.04456
376 1 2 0.698738 2.15049 -5.04456
367 1 2 -1.6332 -1.6332 -4.08973
368 1 2 -0.883879 -2.13387 -4.08973
369 1 2 -4.24283e-16 -2.30969 -4.08973
370 1 2 0.883879 -2.13387 -4.08973
371 1 2 1.6332 -1.6332 -4.08973
366 1 2 -2.13387 -0.883879 -4.08973
372 1 2 2.13387 -0.883879 -4.08973
365 1 2 -2.30969 2.82855e-16 -4.08973
364 1 2 -2.13387 0.883879 -4.08973
357 1 2 2.30969 0 -4.08973
358 1 2 2.13387 0.883879 -4.08973
363 1 2 -1.6332 1.6332 -4.08973
362 1 2 -0.883879 2.13387 -4.08973
361 1 2 1.41428e-16 2.30969 -4.08973
360 1 2 0.883879 2.13387 -4.08973
359 1 2 1.6332 1.6332 -4.08973
351 1 2 -1.65984 -1.65984 -3.13443
335 1 2 -1.67917 -1.67917 -2.17913
352 1 2 -0.898301 -2.16869 -3.13443
336 1 2 -0.908762 -2.19394 -2.17913
353 1 2 -4.31205e-16 -2.34737 -3.13443
354 1 2 0.898301 -2.16869 -3.13443
337 1 2 -4.36227e-16 -2.37471 -2.17913
338 1 2 0.908762 -2.19394 -2.17913
355 1 2 1.65984 -1.65984 -3.13443
339 1 2 1.67917 -1.67917 -2.17913
350 1 2 -2.16869 -0.898301 -3.13443
334 1 2 -2.19394 -0.908762 -2.17913
356 1 2 2.16869 -0.898301 -3.13443
340 1 2 2.19394 -0.908762 -2.17913
349 1 2 -2.34737 2.8747e-16 -3.13443
348 1 2 -2.16869 0.898301 -3.13443
333 1 2 -2.37471 2.90818e-16 -2.17913
332 1 2 -2.19394 0.908762 -2.17913
341 1 2 2.34737 0 -3.13443
342 1 2 2.16869 0.898301 -3.13443
325 1 2 2.37471 0 -2.17913
326 1 2 2.19394 0.908762 -2.17913
347 1 2 -1.65984 1.65984 -3.13443
331 1 2 -1.67917 1.67917 -2.17913
346 1 2 -0.898301 2.16869 -3.13443
330 1 2 -0.908762 2.19394 -2.17913
345 1 2 1.43735e-16 2.34737 -3.13443
344 1 2 0.898301 2.16869 -3.13443
329 1 2 1.45409e-16 2.37471 -2.17913
328 1 2 0.908762 2.19394 -2.17913
343 1 2 1.65984 1.65984 -3.13443
327 1 2 1.67917 1.67917 -2.17913
319 1 2 -1.69145 -1.69145 -1.22227
320 1 2 -0.915406 -2.20999 -1.22227
321 1 2 -4.39417e-16 -2.39207 -1.22227
322 1 2 0.915406 -2.20999 -1.22227
323 1 2 1.69145 -1.69145 -1.22227
318 1 2 -2.20999 -0.915406 -1.22227
324 1 2 2.20999 -0.915406 -1.22227
317 1 2 -2.39207 2.92944e-16 -1.22227
316 1 2 -2.20999 0.915406 -1.22227
309 1 2 2.39207 0 -1.22227
310 1 2 2.20999 0.915406 -1.22227
315 1 2 -1.69145 1.69145 -1.22227
314 1 2 -0.915406 2.20999 -1.22227
313 1 2 1.46472e-16 2.39207 -1.22227
312 1 2 0.915406 2.20999 -1.22227
311 1 2 1.69145 1.69145 -1.22227
303 1 2 -1.69679 -1.69679 -0.266426
287 1 2 -1.69527 -1.69527 0.690497
304 1 2 -0.918296 -2.21696 -0.266426
288 1 2 -0.917473 -2.21498 0.690497
305 1 2 -4.40804e-16 -2.39962 -0.266426
306 1 2 0.918296 -2.21696 -0.266426
289 1 2 -4.40409e-16 -2.39747 0.690497
290 1 2 0.917473 -2.21498 0.690497
307 1 2 1.69679 -1.69679 -0.266426
291 1 2 1.69527 -1.69527 0.690497
302 1 2 -2.21696 -0.918296 -0.266426
286 1 2 -2.21498 -0.917473 0.690497
308 1 2 2.21696 -0.918296 -0.266426
292 1 2 2.21498 -0.917473 0.690497
301 1 2 -2.39962 2.93869e-16 -0.266426
300 1 2 -2.21696 0.918296 -0.266426
285 1 2 -2.39747 2.93606e-16 0.690497
284 1 2 -2.21498 0.917473 0.690497
293 1 2 2.39962 0 -0.266426
294 1 2 2.21696 0.918296 -0.266426
277 1 2 2.39747 0 0.690497
278 1 2 2.21498 0.917473 0.690497
299 1 2 -1.69679 1.69679 -0.266426
283 1 2 -1.69527 1.69527 0.690497
298 1 2 -0.918296 2.21696 -0.266426
282 1 2 -0.917473 2.21498 0.690497
297 1 2 1.46935e-16 2.39962 -0.266426
296 1 2 0.918296 2.21696 -0.266426
281 1 2 1.46803e-16 2.39747 0.690497
280 1 2 0.917473 2.21498 0.690497
295 1 2 1.69679 1.69679 -0.266426
279 1 2 1.69527 1.69527 0.690497
271 1 2 -1.68687 -1.68687 1.64612
272 1 2 -0.91293 -2.20401 1.64612
273 1 2 -4.38228e-16 -2.3856 1.64612
274 1 2 0.91293 -2.20401 1.64612
275 1 2 1.68687 -1.68687 1.64612
270 1 2 -2.20401 -0.91293 1.64612
276 1 2 2.20401 -0.91293 1.64612
269 1 2 -2.3856 2.92152e-16 1.64612
268 1 2 -2.20401 0.91293 1.64612
261 1 2 2.3856 0 1.64612
262 1 2 2.20401 0.91293 1.64612
267 1 2 -1.68687 1.68687 1.64612
266 1 2 -0.91293 2.20401 1.64612
265 1 2 1.46076e-16 2.3856 1.64612
264 1 2 0.91293 2.20401 1.64612
263 1 2 1.68687 1.68687 1.64612
255 1 2 -1.67149 -1.67149 2.60249
239 1 2 -1.64894 -1.64894 3.55836
256 1 2 -0.904604 -2.18391 2.60249
240 1 2 -0.8924 -2.15444 3.55836
257 1 2 -4.34231e-16 -2.36384 2.60249
258 1 2 0.904604 -2.18391 2.60249
241 1 2 -4.28373e-16 -2.33195 3.55836
242 1 2 0.8924 -2.15444 3.55836
259 1 2 1.67149 -1.67149 2.60249
243 1 2 1.64894 -1.64894 3.55836
254 1 2 -2.18391 -0.904604 2.60249
238 1 2 -2.15444 -0.8924 3.55836
260 1 2 2.18391 -0.904604 2.60249
244 1 2 2.15444 -0.8924 3.55836
253 1 2 -2.36384 2.89488e-16 2.60249
252 1 2 -2.18391 0.904604 2.60249
237 1 2 -2.33195 2.85582e-16 3.55836
236 1 2 -2.15444 0.8924 3.55836
245 1 2 2.36384 0 2.60249
246 1 2 2.18391 0.904604 2.60249
229 1 2 2.33195 0 3.55836
230 1 2 2.15444 0.8924 3.55836
251 1 2 -1.67149 1.67149 2.60249
235 1 2 -1.64894 1.64894 3.55836
250 1 2 -0.904604 2.18391 2.60249
234 1 2 -0.8924 2.15444 3.55836
249 1 2 1.44744e-16 2.36384 2.60249
248 1 2 0.904604 2.18391 2.60249
233 1 2 1.42791e-16 2.33195 3.55836
232 1 2 0.8924 2.15444 3.55836
247 1 2 1.67149 1.67149 2.60249
231 1 2 1.64894 1.64894 3.55836
225 1 2 -0.23932 -2.27698 4.51362
224 1 2 -1.14476 -1.98279 4.51362
210 1 2 -0.233719 -2.22369 5.46891
209 1 2 -1.11797 -1.93638 5.46891
226 1 2 0.707502 -2.17747 4.51362
227 1 2 1.53199 -1.70145 4.51362
211 1 2 0.690942 -2.1265 5.46891
212 1 2 1.49613 -1.66162 5.46891
223 1 2 -1.85226 -1.34575 4.51362
222 1 2 -2.23949 -0.476019 4.51362
208 1 2 -1.80891 -1.31425 5.46891
207 1 2 -2.18708 -0.464877 5.46891
228 1 2 2.09158 -0.931233 4.51362
213 1 2 2.04263 -0.909437 5.46891
221 1 2 -2.23949 0.476019 4.51362
220 1 2 -1.85226 1.34575 4.51362
206 1 2 -2.18708 0.464877 5.46891
205 1 2 -1.80891 1.31425 5.46891
214 1 2 2.28952 0 4.51362
215 1 2 2.09158 0.931233 4.51362
199 1 2 2.23594 0 5.46891
200 1 2 2.04263 0.909437 5.46891
219 1 2 -1.14476 1.98279 4.51362
218 1 2 -0.23932 2.27698 4.51362
204 1 2 -1.11797 1.93638 5.46891
203 1 2 -0.233719 2.22369 5.46891
216 1 2 1.53199 1.70145 4.51362
217 1 2 0.707502 2.17747 4.51362
201 1 2 1.49613 1.66162 5.46891
202 1 2 0.690942 2.1265 5.46891
195 1 2 -0.226878 -2.1586 6.42259
194 1 2 -1.08524 -1.8797 6.42259
196 1 2 0.670717 -2.06426 6.42259
197 1 2 1.45234 -1.61299 6.42259
193 1 2 -1.75596 -1.27578 6.42259
192 1 2 -2.12306 -0.45127 6.42259
198 1 2 1.98284 -0.882817 6.42259
191 1 2 -2.12306 0.45127 6.42259
190 1 2 -1.75596 1.27578 6.42259
184 1 2 2.17049 0 6.42259
185 1 2 1.98284 0.882817 6.42259
189 1 2 -1.08524 1.8797 6.42259
188 1 2 -0.226878 2.1586 6.42259
186 1 2 1.45234 1.61299 6.42259
187 1 2 0.670717 2.06426 6.42259
179 1 2 -1.30435 -1.6356 7.3759
180 1 2 -0.465516 -2.03956 7.3759
165 1 2 -1.24639 -1.56293 8.32811
166 1 2 -0.444832 -1.94894 8.32811
181 1 2 0.465516 -2.03956 7.3759
182 1 2 1.30435 -1.6356 7.3759
167 1 2 0.444832 -1.94894 8.32811
168 1 2 1.24639 -1.56293 8.32811
178 1 2 -1.88483 -0.907688 7.3759
164 1 2 -1.80109 -0.867358 8.32811
183 1 2 1.88483 -0.907688 7.3759
169 1 2 1.80109 -0.867358 8.32811
177 1 2 -2.09201 2.56197e-16 7.3759
176 1 2 -1.88483 0.907688 7.3759
163 1 2 -1.99906 2.44814e-16 8.32811
162 1 2 -1.80109 0.867358 8.32811
170 1 2 2.09201 0 7.3759
171 1 2 1.88483 0.907688 7.3759
156 1 2 1.99906 0 8.32811
157 1 2 1.80109 0.867358 8.32811
175 1 2 -1.30435 1.6356 7.3759
174 1 2 -0.465516 2.03956 7.3759
161 1 2 -1.24639 1.56293 8.32811
160 1 2 -0.444832 1.94894 8.32811
173 1 2 0.465516 2.03956 7.3759
172 1 2 1.30435 1.6356 7.3759
159 1 2 0.444832 1.94894 8.32811
158 1 2 1.24639 1.56293 8.32811
152 1 2 -0.670076 -1.76685 9.2784
153 1 2 0.227771 -1.87586 9.2784
154 1 2 1.07344 -1.55514 9.2784
150 1 2 -1.83473 -0.452221 9.2784
151 1 2 -1.41442 -1.25306 9.2784
155 1 2 1.67319 -0.87816 9.2784
149 1 2 -1.83473 0.452221 9.2784
148 1 2 -1.41442 1.25306 9.2784
143 1 2 1.88964 0 9.2784
144 1 2 1.67319 0.87816 9.2784
147 1 2 -0.670076 1.76685 9.2784
146 1 2 0.227771 1.87586 9.2784
145 1 2 1.07344 1.55514 9.2784
128 1 2 -0.228916 -1.59215 11.1696
140 1 2 -3.23483e-16 -1.76096 10.2255
126 1 2 -1.54336 -0.453172 11.1696
139 1 2 -0.88048 -1.52504 10.2255
138 1 2 -1.52504 -0.88048 10.2255
127 1 2 -1.05336 -1.21564 11.1696
141 1 2 0.88048 -1.52504 10.2255
142 1 2 1.52504 -0.88048 10.2255
129 1 2 0.668203 -1.46316 11.1696
130 1 2 1.35317 -0.869631 11.1696
137 1 2 -1.76096 2.15655e-16 10.2255
125 1 2 -1.54336 0.453172 11.1696
136 1 2 -1.52504 0.88048 10.2255
135 1 2 -0.88048 1.52504 10.2255
124 1 2 -1.05336 1.21564 11.1696
132 1 2 1.52504 0.88048 10.2255
133 1 2 0.88048 1.52504 10.2255
121 1 2 1.35317 0.869631 11.1696
122 1 2 0.668203 1.46316 11.1696
131 1 2 1.76096 0 10.2255
120 1 2 1.60852 0 11.1696
123 1 2 -0.228916 1.59215 11.1696
134 1 2 1.07828e-16 1.76096 10.2255
117 1 2 -0.440462 -1.3556 12.1083
116 1 2 -1.15314 -0.837808 12.1083
106 1 3 -1.12685 -0.410141 13.0367
107 1 3 -0.599586 -1.03851 13.0367
1 1 1 -0.0737822 -0.0536434 12.9356
118 1 2 0.440462 -1.3556 12.1083
119 1 2 1.15314 -0.837808 12.1083
108 1 3 0.208234 -1.18095 13.0367
109 1 3 0.918618 -0.770812 13.0367
115 1 2 -1.42536 1.74557e-16 12.1083
114 1 2 -1.15314 0.837808 12.1083
113 1 2 -0.440462 1.3556 12.1083
104 1 3 -0.599586 1.03851 13.0367
105 1 3 -1.12685 0.410141 13.0367
110 1 2 1.42536 0 12.1083
111 1 2 1.15314 0.837808 12.1083
112 1 2 0.440462 1.3556 12.1083
101 1 3 1.19917 0 13.0367
103 1 3 0.208234 1.18095 13.0367
102 1 3 0.918618 0.770812 13.0367
2 1 1 0.242234 0.265072 13.8825
3 1 1 0.716194 0.506967 14.7242
4 1 1 1.31037 0.794198 15.4452
5 1 1 1.84472 1.21711 16.1267
6 1 1 2.01405 1.83964 16.8129
7 1 1 2.09077 2.37607 17.605
8 1 1 2.40209 2.61446 18.4599
9 1 1 2.2671 3.21822 19.2876
10 1 1 1.90129 3.39678 20.1641
12 1 1 1.57244 4.31722 21.8207
11 1 1 1.85171 3.74531 21.0599
13 1 1 1.16216 4.8415 22.5264
14 1 1 0.749034 5.37569 23.2027
16 1 1 -0.608137 5.80702 24.591
15 1 1 0.0520023 5.69472 23.8489
17 1 1 -1.23255 5.72704 25.3309
18 1 1 -1.48787 5.48184 26.255
19 1 1 -1.29385 5.2633 27.1328
20 1 1 -0.709074 5.19569 27.8933
21 1 1 -0.0326953 5.44188 28.6267
22 1 1 0.556645 5.80205 29.2881
23 1 1 0.804544 5.84831 30.24
24 1 1 0.412293 6.09174 31.1149
26 1 1 -0.350739 7.45272 32.262
25 1 1 0.0772769 6.79338 31.6605
28 1 1 -1.09366 9.08537 31.8688
27 1 1 -0.75968 8.19535 31.9155
29 1 1 -1.68151 9.62106 32.3626
30 1 1 -2.27176 9.91802 33.0929
31 1 1 -2.95933 10.104 33.8065
32 1 1 -3.08764 10.0663 34.8291
33 1 1 -3.3825 10.575 35.5842
34 1 1 -3.0578 11.0833 36.3465
35 1 1 -2.73552 11.393 37.2702
36 1 1 -2.47863 11.9128 38.036
37 1 1 -2.24807 12.4205 38.8678
38 1 1 -2.03532 12.8115 39.7209
39 1 1 -1.68156 13.4891 40.4669
40 1 1 -1.49547 13.9545 41.1998
41 1 1 -1.21491 14.3534 42.0397
42 1 1 -0.897742 14.5238 42.9201
43 1 1 -0.189812 14.5805 43.5599
44 1 1 0.303494 14.3742 44.3944
45 1 1 0.862556 14.2612 45.2203
46 1 1 1.37908 14.3873 46.0083
47 1 1 1.85957 14.2412 46.8218
48 1 1 2.30397 14.3311 47.6475
49 1 1 2.80263 14.3418 48.4085
50 1 1 3.43114 14.3176 49.165
51 1 1 4.01702 14.2016 49.9814
56 1 1 6.00767 10.8515 52.097
55 1 1 5.67846 11.6373 51.7575
54 1 1 5.07436 12.2768 51.4968
53 1 1 4.58368 13.1211 51.3584
52 1 1 4.3575 13.869 50.7988
68 1 1 0.947509 2.81707 53.2628
67 1 1 1.15752 3.67118 53.6208
58 1 1 6.10049 9.52065 53.3704
57 1 1 6.34088 10.1506 52.6967
95 1 1 4.61301 -1.59562 54.0015
94 1 1 5.5774 -1.74126 53.9753
93 1 1 6.46668 -2.21733 53.9538
92 1 1 7.41041 -2.26574 54.2615
91 1 1 8.30935 -2.72789 54.1811
90 1 1 9.27244 -2.59662 54.3289
89 1 1 9.96506 -2.22898 54.8568
96 1 1 3.67537 -1.39714 54.3339
71 1 1 2.84664 1.16965 54.4386
70 1 1 1.94249 1.43269 54.1388
72 1 1 3.57598 0.835834 54.8933
74 1 1 5.42899 0.651328 55.1234
75 1 1 6.24548 1.10388 54.9183
69 1 1 1.26697 2.01597 53.7795
66 1 1 1.25908 4.51985 54.0123
65 1 1 1.56857 5.29745 54.5517
64 1 1 1.94146 6.20919 54.725
63 1 1 2.80688 6.65263 54.7421
62 1 1 3.62641 7.05628 54.3524
61 1 1 4.50719 7.39745 54.0806
60 1 1 5.21663 8.03657 54.1518
59 1 1 5.7106 8.79061 53.8009
98 1 1 2.83019 -2.04369 55.9307
88 1 1 10.601 -1.86359 55.5159
97 1 1 3.20831 -1.45823 55.2462
87 1 1 11.1292 -1.37986 56.209
86 1 1 11.6464 -0.716235 56.6439
73 1 1 4.45936 0.62144 55.2782
85 1 1 12.0093 0.11711 56.4482
76 1 1 6.84158 1.67161 55.3435
77 1 1 7.32776 1.93382 56.0739
78 1 1 8.09357 2.49088 56.3587
79 1 1 8.84193 2.98246 56.562
99 1 1 2.33676 -2.29011 56.7918
100 1 1 1.67511 -2.61191 57.364
84 1 1 11.8284 0.910576 56.9321
82 1 1 11.133 2.63254 57.4919
83 1 1 11.5589 1.80535 57.2065
81 1 1 10.4018 3.24473 57.5941
80 1 1 9.47747 3.21315 57.2655
