ITEM: TIMESTEP
5000
ITEM: NUMBER OF ATOMS
438
ITEM: BOX BOUNDS pp pp pp
-2.0000000000000000e+01 2.0000000000000000e+01
-2.0000000000000000e+01 2.0000000000000000e+01
-2.0000000000000000e+01 1.5000000000000000e+02
ITEM: ATOMS id mol type x y z
436 1 2 -0.385905 -0.668408 -11.2299
437 1 2 0.385905 -0.668408 -11.2299
435 1 2 -0.771811 9.45196e-17 -11.2299
434 1 2 -0.385905 0.668408 -11.2299
438 1 2 0 0 -11.76
432 1 2 0.771811 0 -11.2299
433 1 2 0.385905 0.668408 -11.2299
428 1 2 -1.1468 -0.417401 -10.384
429 1 2 -0.610199 -1.0569 -10.384
420 1 2 -0.218978 -1.52302 -9.47954
418 1 2 -1.47636 -0.433498 -9.47954
419 1 2 -1.00762 -1.16286 -9.47954
430 1 2 0.21192 -1.20186 -10.384
431 1 2 0.934879 -0.784456 -10.384
421 1 2 0.639193 -1.39964 -9.47954
422 1 2 1.29442 -0.831876 -9.47954
426 1 2 -0.610199 1.0569 -10.384
427 1 2 -1.1468 0.417401 -10.384
417 1 2 -1.47636 0.433498 -9.47954
416 1 2 -1.00762 1.16286 -9.47954
415 1 2 -0.218978 1.52302 -9.47954
423 1 2 1.2204 0 -10.384
425 1 2 0.21192 1.20186 -10.384
424 1 2 0.934879 0.784456 -10.384
413 1 2 1.29442 0.831876 -9.47954
414 1 2 0.639193 1.39964 -9.47954
412 1 2 1.53869 0 -9.47954
408 1 2 -0.892287 -1.54549 -8.55243
409 1 2 -3.27821e-16 -1.78457 -8.55243
410 1 2 0.892287 -1.54549 -8.55243
407 1 2 -1.54549 -0.892287 -8.55243
411 1 2 1.54549 -0.892287 -8.55243
406 1 2 -1.78457 2.18547e-16 -8.55243
405 1 2 -1.54549 0.892287 -8.55243
400 1 2 1.78457 0 -8.55243
401 1 2 1.54549 0.892287 -8.55243
404 1 2 -0.892287 1.54549 -8.55243
403 1 2 1.09274e-16 1.78457 -8.55243
402 1 2 0.892287 1.54549 -8.55243
396 1 2 -0.702661 -1.85276 -7.61374
383 1 2 -0.476584 -2.08805 -6.66738
382 1 2 -1.33536 -1.67449 -6.66738
397 1 2 0.238847 -1.96708 -7.61374
398 1 2 1.12564 -1.63077 -7.61374
384 1 2 0.476584 -2.08805 -6.66738
385 1 2 1.33536 -1.67449 -6.66738
394 1 2 -1.92395 -0.474211 -7.61374
381 1 2 -1.92965 -0.92927 -6.66738
395 1 2 -1.4832 -1.314 -7.61374
399 1 2 1.75456 -0.920863 -7.61374
386 1 2 1.92965 -0.92927 -6.66738
393 1 2 -1.92395 0.474211 -7.61374
380 1 2 -2.14175 2.62289e-16 -6.66738
379 1 2 -1.92965 0.92927 -6.66738
392 1 2 -1.4832 1.314 -7.61374
387 1 2 1.98153 0 -7.61374
388 1 2 1.75456 0.920863 -7.61374
373 1 2 2.14175 0 -6.66738
374 1 2 1.92965 0.92927 -6.66738
391 1 2 -0.702661 1.85276 -7.61374
378 1 2 -1.33536 1.67449 -6.66738
377 1 2 -0.476584 2.08805 -6.66738
390 1 2 0.238847 1.96708 -7.61374
389 1 2 1.12564 1.63077 -7.61374
375 1 2 1.33536 1.67449 -6.66738
376 1 2 0.476584 2.08805 -6.66738
369 1 2 -0.237507 -2.25972 -5.71635
368 1 2 -1.13609 -1.96776 -5.71635
370 1 2 0.702139 -2.16096 -5.71635
371 1 2 1.52038 -1.68855 -5.71635
367 1 2 -1.83822 -1.33555 -5.71635
366 1 2 -2.22252 -0.472411 -5.71635
372 1 2 2.07573 -0.924175 -5.71635
365 1 2 -2.22252 0.472411 -5.71635
364 1 2 -1.83822 1.33555 -5.71635
358 1 2 2.27217 0 -5.71635
359 1 2 2.07573 0.924175 -5.71635
363 1 2 -1.13609 1.96776 -5.71635
362 1 2 -0.237507 2.25972 -5.71635
360 1 2 1.52038 1.68855 -5.71635
361 1 2 0.702139 2.16096 -5.71635
352 1 2 -1.68093 -1.68093 -4.76307
336 1 2 -1.73945 -1.73945 -3.80745
353 1 2 -0.909714 -2.19624 -4.76307
337 1 2 -0.941386 -2.27271 -3.80745
354 1 2 -4.36684e-16 -2.3772 -4.76307
355 1 2 0.909714 -2.19624 -4.76307
338 1 2 -4.51887e-16 -2.45996 -3.80745
339 1 2 0.941386 -2.27271 -3.80745
356 1 2 1.68093 -1.68093 -4.76307
340 1 2 1.73945 -1.73945 -3.80745
351 1 2 -2.19624 -0.909714 -4.76307
335 1 2 -2.27271 -0.941386 -3.80745
357 1 2 2.19624 -0.909714 -4.76307
341 1 2 2.27271 -0.941386 -3.80745
350 1 2 -2.3772 2.91123e-16 -4.76307
349 1 2 -2.19624 0.909714 -4.76307
334 1 2 -2.45996 3.01258e-16 -3.80745
333 1 2 -2.27271 0.941386 -3.80745
342 1 2 2.3772 0 -4.76307
343 1 2 2.19624 0.909714 -4.76307
326 1 2 2.45996 0 -3.80745
327 1 2 2.27271 0.941386 -3.80745
348 1 2 -1.68093 1.68093 -4.76307
332 1 2 -1.73945 1.73945 -3.80745
347 1 2 -0.909714 2.19624 -4.76307
331 1 2 -0.941386 2.27271 -3.80745
346 1 2 1.45561e-16 2.3772 -4.76307
345 1 2 0.909714 2.19624 -4.76307
330 1 2 1.50629e-16 2.45996 -3.80745
329 1 2 0.941386 2.27271 -3.80745
344 1 2 1.68093 1.68093 -4.76307
328 1 2 1.73945 1.73945 -3.80745
321 1 2 -0.69031 -2.42619 -2.85022
320 1 2 -1.52013 -2.01298 -2.85022
322 1 2 0.232745 -2.51172 -2.85022
323 1 2 1.12437 -2.25803 -2.85022
324 1 2 1.86414 -1.69938 -2.85022
319 1 2 -2.14466 -1.32792 -2.85022
318 1 2 -2.47953 -0.463505 -2.85022
325 1 2 2.35214 -0.911225 -2.85022
317 1 2 -2.47953 0.463505 -2.85022
316 1 2 -2.14466 1.32792 -2.85022
309 1 2 2.52248 0 -2.85022
310 1 2 2.35214 0.911225 -2.85022
315 1 2 -1.52013 2.01298 -2.85022
314 1 2 -0.69031 2.42619 -2.85022
313 1 2 0.232745 2.51172 -2.85022
312 1 2 1.12437 2.25803 -2.85022
311 1 2 1.86414 1.69938 -2.85022
303 1 2 -1.54643 -2.04781 -1.8922
286 1 2 -1.56191 -2.06831 -0.932806
304 1 2 -0.702253 -2.46816 -1.8922
287 1 2 -0.709282 -2.49287 -0.932806
305 1 2 0.236772 -2.55518 -1.8922
306 1 2 1.14382 -2.2971 -1.8922
288 1 2 0.239142 -2.58075 -0.932806
289 1 2 1.15527 -2.32009 -0.932806
307 1 2 1.89639 -1.72879 -1.8922
290 1 2 1.91537 -1.74609 -0.932806
302 1 2 -2.18176 -1.35089 -1.8922
301 1 2 -2.52243 -0.471524 -1.8922
285 1 2 -2.2036 -1.36441 -0.932806
284 1 2 -2.54768 -0.476243 -0.932806
308 1 2 2.39284 -0.926991 -1.8922
291 1 2 2.41679 -0.936269 -0.932806
300 1 2 -2.52243 0.471524 -1.8922
299 1 2 -2.18176 1.35089 -1.8922
283 1 2 -2.54768 0.476243 -0.932806
282 1 2 -2.2036 1.36441 -0.932806
292 1 2 2.56612 0 -1.8922
293 1 2 2.39284 0.926991 -1.8922
275 1 2 2.59181 0 -0.932806
276 1 2 2.41679 0.936269 -0.932806
298 1 2 -1.54643 2.04781 -1.8922
281 1 2 -1.56191 2.06831 -0.932806
297 1 2 -0.702253 2.46816 -1.8922
280 1 2 -0.709282 2.49287 -0.932806
296 1 2 0.236772 2.55518 -1.8922
295 1 2 1.14382 2.2971 -1.8922
279 1 2 0.239142 2.58075 -0.932806
278 1 2 1.15527 2.32009 -0.932806
294 1 2 1.89639 1.72879 -1.8922
277 1 2 1.91537 1.74609 -0.932806
269 1 2 -1.56685 -2.07484 0.0270048
252 1 2 -1.56133 -2.06753 0.986636
270 1 2 -0.711522 -2.50074 0.0270048
253 1 2 -0.709015 -2.49193 0.986636
271 1 2 0.239897 -2.5889 0.0270048
272 1 2 1.15892 -2.32742 0.0270048
254 1 2 0.239052 -2.57978 0.986636
255 1 2 1.15483 -2.31922 0.986636
273 1 2 1.92142 -1.7516 0.0270048
256 1 2 1.91465 -1.74543 0.986636
268 1 2 -2.21056 -1.36872 0.0270048
267 1 2 -2.55572 -0.477747 0.0270048
251 1 2 -2.20277 -1.3639 0.986636
250 1 2 -2.54672 -0.476064 0.986636
274 1 2 2.42442 -0.939226 0.0270048
257 1 2 2.41588 -0.935917 0.986636
266 1 2 -2.55572 0.477747 0.0270048
265 1 2 -2.21056 1.36872 0.0270048
249 1 2 -2.54672 0.476064 0.986636
248 1 2 -2.20277 1.3639 0.986636
258 1 2 2.59999 0 0.0270048
259 1 2 2.42442 0.939226 0.0270048
241 1 2 2.59083 0 0.986636
242 1 2 2.41588 0.935917 0.986636
264 1 2 -1.56685 2.07484 0.0270048
247 1 2 -1.56133 2.06753 0.986636
263 1 2 -0.711522 2.50074 0.0270048
246 1 2 -0.709015 2.49193 0.986636
262 1 2 0.239897 2.5889 0.0270048
261 1 2 1.15892 2.32742 0.0270048
245 1 2 0.239052 2.57978 0.986636
244 1 2 1.15483 2.31922 0.986636
260 1 2 1.92142 1.7516 0.0270048
243 1 2 1.91465 1.74543 0.986636
235 1 2 -1.54526 -2.04626 1.94548
236 1 2 -0.70172 -2.46629 1.94548
237 1 2 0.236592 -2.55324 1.94548
238 1 2 1.14295 -2.29536 1.94548
239 1 2 1.89495 -1.72747 1.94548
234 1 2 -2.18011 -1.34986 1.94548
233 1 2 -2.52052 -0.471166 1.94548
240 1 2 2.39102 -0.926287 1.94548
232 1 2 -2.52052 0.471166 1.94548
231 1 2 -2.18011 1.34986 1.94548
224 1 2 2.56417 0 1.94548
225 1 2 2.39102 0.926287 1.94548
230 1 2 -1.54526 2.04626 1.94548
229 1 2 -0.70172 2.46629 1.94548
228 1 2 0.236592 2.55324 1.94548
227 1 2 1.14295 2.29536 1.94548
226 1 2 1.89495 1.72747 1.94548
201 1 2 -1.73658 -1.73658 3.86073
219 1 2 -0.689493 -2.42332 2.90373
218 1 2 -1.51834 -2.0106 2.90373
202 1 2 -0.939831 -2.26895 3.86073
220 1 2 0.23247 -2.50875 2.90373
221 1 2 1.12304 -2.25536 2.90373
203 1 2 -4.51141e-16 -2.4559 3.86073
204 1 2 0.939831 -2.26895 3.86073
222 1 2 1.86193 -1.69737 2.90373
205 1 2 1.73658 -1.73658 3.86073
217 1 2 -2.14212 -1.32634 2.90373
216 1 2 -2.4766 -0.462956 2.90373
200 1 2 -2.26895 -0.939831 3.86073
223 1 2 2.34936 -0.910147 2.90373
206 1 2 2.26895 -0.939831 3.86073
215 1 2 -2.4766 0.462956 2.90373
214 1 2 -2.14212 1.32634 2.90373
199 1 2 -2.4559 3.00761e-16 3.86073
198 1 2 -2.26895 0.939831 3.86073
207 1 2 2.5195 0 2.90373
208 1 2 2.34936 0.910147 2.90373
191 1 2 2.4559 0 3.86073
192 1 2 2.26895 0.939831 3.86073
197 1 2 -1.73658 1.73658 3.86073
213 1 2 -1.51834 2.0106 2.90373
212 1 2 -0.689493 2.42332 2.90373
196 1 2 -0.939831 2.26895 3.86073
211 1 2 0.23247 2.50875 2.90373
210 1 2 1.12304 2.25536 2.90373
195 1 2 1.5038e-16 2.4559 3.86073
194 1 2 0.939831 2.26895 3.86073
209 1 2 1.86193 1.69737 2.90373
193 1 2 1.73658 1.73658 3.86073
185 1 2 -1.67719 -1.67719 4.81669
186 1 2 -0.907691 -2.19136 4.81669
187 1 2 -4.35713e-16 -2.37191 4.81669
188 1 2 0.907691 -2.19136 4.81669
189 1 2 1.67719 -1.67719 4.81669
184 1 2 -2.19136 -0.907691 4.81669
190 1 2 2.19136 -0.907691 4.81669
183 1 2 -2.37191 2.90475e-16 4.81669
182 1 2 -2.19136 0.907691 4.81669
175 1 2 2.37191 0 4.81669
176 1 2 2.19136 0.907691 4.81669
181 1 2 -1.67719 1.67719 4.81669
180 1 2 -0.907691 2.19136 4.81669
179 1 2 1.45238e-16 2.37191 4.81669
178 1 2 0.907691 2.19136 4.81669
177 1 2 1.67719 1.67719 4.81669
171 1 2 -0.236804 -2.25304 5.77067
170 1 2 -1.13273 -1.96194 5.77067
156 1 2 -0.474742 -2.07998 6.72145
155 1 2 -1.3302 -1.66801 6.72145
172 1 2 0.700063 -2.15457 5.77067
173 1 2 1.51588 -1.68356 5.77067
157 1 2 0.474742 -2.07998 6.72145
158 1 2 1.3302 -1.66801 6.72145
169 1 2 -1.83279 -1.3316 5.77067
168 1 2 -2.21594 -0.471014 5.77067
154 1 2 -1.92219 -0.925678 6.72145
174 1 2 2.06959 -0.921442 5.77067
159 1 2 1.92219 -0.925678 6.72145
167 1 2 -2.21594 0.471014 5.77067
166 1 2 -1.83279 1.3316 5.77067
153 1 2 -2.13347 2.61275e-16 6.72145
152 1 2 -1.92219 0.925678 6.72145
160 1 2 2.26545 0 5.77067
161 1 2 2.06959 0.921442 5.77067
146 1 2 2.13347 0 6.72145
147 1 2 1.92219 0.925678 6.72145
165 1 2 -1.13273 1.96194 5.77067
164 1 2 -0.236804 2.25304 5.77067
151 1 2 -1.3302 1.66801 6.72145
150 1 2 -0.474742 2.07998 6.72145
162 1 2 1.51588 1.68356 5.77067
163 1 2 0.700063 2.15457 5.77067
148 1 2 1.3302 1.66801 6.72145
149 1 2 0.474742 2.07998 6.72145
142 1 2 -0.699071 -1.8433 7.66732
143 1 2 0.237627 -1.95703 7.66732
144 1 2 1.11989 -1.62244 7.66732
140 1 2 -1.91412 -0.471789 7.66732
141 1 2 -1.47562 -1.30729 7.66732
145 1 2 1.7456 -0.916159 7.66732
139 1 2 -1.91412 0.471789 7.66732
138 1 2 -1.47562 1.30729 7.66732
133 1 2 1.97141 0 7.66732
134 1 2 1.7456 0.916159 7.66732
137 1 2 -0.699071 1.8433 7.66732
136 1 2 0.237627 1.95703 7.66732
135 1 2 1.11989 1.62244 7.66732
130 1 2 -3.25524e-16 -1.77207 8.60546
129 1 2 -0.886035 -1.53466 8.60546
128 1 2 -1.53466 -0.886035 8.60546
118 1 2 -0.216707 -1.50723 9.53211
116 1 2 -1.46105 -0.429002 9.53211
117 1 2 -0.997175 -1.1508 9.53211
131 1 2 0.886035 -1.53466 8.60546
132 1 2 1.53466 -0.886035 8.60546
119 1 2 0.632564 -1.38512 9.53211
120 1 2 1.281 -0.823249 9.53211
127 1 2 -1.77207 2.17016e-16 8.60546
126 1 2 -1.53466 0.886035 8.60546
125 1 2 -0.886035 1.53466 8.60546
115 1 2 -1.46105 0.429002 9.53211
114 1 2 -0.997175 1.1508 9.53211
113 1 2 -0.216707 1.50723 9.53211
122 1 2 1.53466 0.886035 8.60546
123 1 2 0.886035 1.53466 8.60546
110 1 2 1.52273 0 9.53211
111 1 2 1.281 0.823249 9.53211
112 1 2 0.632564 1.38512 9.53211
121 1 2 1.77207 0 8.60546
124 1 2 1.08508e-16 1.77207 8.60546
106 1 3 -1.1267 -0.410086 10.4349
107 1 3 -0.599506 -1.03837 10.4349
108 1 3 0.208206 -1.1808 10.4349
109 1 3 0.918496 -0.77071 10.4349
1 1 1 -0.095769 0.0576234 10.4526
104 1 3 -0.599506 1.03837 10.4349
105 1 3 -1.1267 0.410086 10.4349
2 1 1 0.209993 0.484389 11.3307
101 1 3 1.19901 0 10.4349
103 1 3 0.208206 1.1808 10.4349
102 1 3 0.918496 0.77071 10.4349
3 1 1 0.347588 0.645476 12.2798
4 1 1 0.634868 0.798612 13.138
5 1 1 0.939142 1.11949 13.9436
6 1 1 1.35115 1.74575 14.5147
7 1 1 1.5492 2.34614 15.272
8 1 1 1.77593 2.89449 16.0151
9 1 1 1.41324 3.4591 16.8376
10 1 1 1.04677 3.54205 17.7108
11 1 1 1.01224 3.61062 18.6922
12 1 1 1.08122 4.08519 19.4754
13 1 1 0.7412 4.89391 19.9518
15 1 1 -0.391793 5.77938 21.1868
16 1 1 -0.873654 5.91987 21.9771
14 1 1 0.288477 5.33298 20.6666
17 1 1 -1.3645 5.63602 22.764
18 1 1 -1.40859 5.57967 23.7058
19 1 1 -0.960297 5.40526 24.5186
20 1 1 -0.60618 5.52776 25.3768
21 1 1 0.0689058 5.71871 26.0602
22 1 1 0.577297 5.56466 26.8382
23 1 1 0.757789 5.71644 27.7556
26 1 1 -0.0777009 7.45172 29.5921
24 1 1 0.944387 6.21222 28.5652
25 1 1 0.549627 7.01996 28.9482
27 1 1 -0.54905 8.28885 29.7128
28 1 1 -0.889677 9.18817 29.6987
29 1 1 -1.5573 9.58247 30.3411
30 1 1 -2.07524 9.62373 31.1461
31 1 1 -2.76047 9.55075 31.8902
33 1 1 -3.4323 9.72263 33.659
32 1 1 -3.10181 9.37505 32.8349
34 1 1 -3.34904 10.4295 34.3394
35 1 1 -2.90326 10.6825 35.1767
37 1 1 -2.30999 11.0556 37.0335
36 1 1 -2.3701 10.8876 35.9907
38 1 1 -2.13071 11.5408 37.9241
39 1 1 -1.88246 12.2893 38.5643
40 1 1 -1.71668 12.6642 39.464
41 1 1 -1.24292 12.7004 40.3468
42 1 1 -0.908639 12.9178 41.2115
43 1 1 -0.164839 12.9894 41.8204
44 1 1 0.647526 12.8112 42.3988
45 1 1 1.18995 12.5896 43.2199
46 1 1 1.80367 12.9968 43.8406
47 1 1 2.33466 12.8788 44.628
48 1 1 2.69961 12.8289 45.5075
51 1 1 4.57199 12.0439 47.5395
49 1 1 3.30628 12.7487 46.2946
50 1 1 4.04611 12.3741 46.8082
60 1 1 4.5763 6.74094 49.044
59 1 1 5.18102 7.53559 48.9192
58 1 1 5.95791 8.02125 48.9312
57 1 1 6.72129 8.6514 49.1121
100 1 1 15.6873 7.76381 49.2024
56 1 1 6.98217 9.57963 49.1632
52 1 1 5.28121 11.9265 48.1865
53 1 1 5.97353 11.6827 48.7781
54 1 1 6.78015 11.2905 48.96
63 1 1 2.32763 5.42044 50.1429
62 1 1 3.052 5.7503 49.6416
61 1 1 3.784 6.27568 49.2727
97 1 1 13.2562 6.83287 50.275
98 1 1 14.0386 7.29276 50.0763
99 1 1 14.9122 7.6996 49.7827
55 1 1 7.24722 10.4897 49.2515
86 1 1 7.61003 -0.228385 51.8571
87 1 1 7.75815 0.681065 51.6019
88 1 1 8.15264 1.57534 51.5743
89 1 1 8.34686 2.51189 51.4801
90 1 1 8.67752 3.40341 51.769
91 1 1 9.32557 4.1093 51.9542
66 1 1 0.13904 4.63666 51.8326
65 1 1 0.811336 4.77158 51.187
64 1 1 1.62301 5.11478 50.7249
92 1 1 9.89475 4.87926 52.0849
93 1 1 10.3029 5.68376 51.8321
94 1 1 10.9275 6.25633 51.3654
95 1 1 11.7991 6.63864 51.2296
96 1 1 12.6472 6.2721 50.7751
77 1 1 2.47062 -3.39358 53.6915
84 1 1 7.32164 -1.72772 52.978
85 1 1 7.59773 -1.07654 52.3467
69 1 1 -0.713896 2.41279 53.5771
68 1 1 -0.293658 3.03841 53.037
67 1 1 -0.0097524 3.89737 52.5341
76 1 1 1.52813 -3.28016 53.7504
78 1 1 3.40891 -3.36304 53.994
74 1 1 0.0380003 -2.17916 54.0984
75 1 1 0.671862 -2.86073 53.9293
79 1 1 4.15303 -2.95187 54.4805
81 1 1 5.73013 -2.42873 55.1385
80 1 1 4.84193 -2.70116 55.0531
83 1 1 6.95537 -2.12542 53.7842
82 1 1 6.58245 -2.49883 54.6429
72 1 1 -0.0503574 -0.323366 54.139
73 1 1 -0.160687 -1.27676 53.8951
71 1 1 -0.343545 0.617091 54.0045
70 1 1 -0.664369 1.57037 53.9855
