ITEM: TIMESTEP
5000
ITEM: NUMBER OF ATOMS
325
ITEM: BOX BOUNDS pp pp pp
-2.0000000000000000e+01 2.0000000000000000e+01
-2.0000000000000000e+01 2.0000000000000000e+01
-2.0000000000000000e+01 1.5000000000000000e+02
ITEM: ATOMS id mol type x y z
314 1 2 -0.651552 -1.718 -3.57552
315 1 2 0.221474 -1.824 -3.57552
312 1 2 -1.78401 -0.439719 -3.57552
322 1 2 -0.854926 -0.411711 -3.9064
323 1 2 -0.211149 -0.925106 -3.9064
313 1 2 -1.37531 -1.21842 -3.57552
324 1 2 0.591627 -0.741877 -3.9064
316 1 2 1.04376 -1.51215 -3.57552
317 1 2 1.62694 -0.853883 -3.57552
311 1 2 -1.78401 0.439719 -3.57552
321 1 2 -0.854926 0.411711 -3.9064
320 1 2 -0.211149 0.925106 -3.9064
310 1 2 -1.37531 1.21842 -3.57552
325 1 2 0 0 -4.02
318 1 2 0.948896 0 -3.9064
319 1 2 0.591627 0.741877 -3.9064
307 1 2 1.04376 1.51215 -3.57552
305 1 2 1.8374 0 -3.57552
306 1 2 1.62694 0.853883 -3.57552
309 1 2 -0.651552 1.718 -3.57552
308 1 2 0.221474 1.824 -3.57552
282 1 2 -0.464524 -3.23083 -2.34656
283 1 2 0.464524 -3.23083 -2.34656
299 1 2 -1.58113 -2.09376 -3.04575
280 1 2 -2.1375 -2.46681 -2.34656
279 1 2 -2.7459 -1.76468 -2.34656
300 1 2 -0.71801 -2.52354 -3.04575
281 1 2 -1.35594 -2.96909 -2.34656
301 1 2 0.242085 -2.61251 -3.04575
302 1 2 1.16948 -2.34864 -3.04575
284 1 2 1.35594 -2.96909 -2.34656
303 1 2 1.93894 -1.76758 -3.04575
285 1 2 2.1375 -2.46681 -2.34656
286 1 2 2.7459 -1.76468 -2.34656
278 1 2 -3.13184 -0.919591 -2.34656
298 1 2 -2.23072 -1.3812 -3.04575
297 1 2 -2.57903 -0.482104 -3.04575
304 1 2 2.44653 -0.94779 -3.04575
287 1 2 3.13184 -0.919591 -2.34656
277 1 2 -3.26406 1.84926e-15 -2.34656
276 1 2 -3.13184 0.919591 -2.34656
296 1 2 -2.57903 0.482104 -3.04575
295 1 2 -2.23072 1.3812 -3.04575
288 1 2 2.6237 0 -3.04575
289 1 2 2.44653 0.94779 -3.04575
266 1 2 3.26406 0 -2.34656
267 1 2 3.13184 0.919591 -2.34656
294 1 2 -1.58113 2.09376 -3.04575
275 1 2 -2.7459 1.76468 -2.34656
274 1 2 -2.1375 2.46681 -2.34656
293 1 2 -0.71801 2.52354 -3.04575
273 1 2 -1.35594 2.96909 -2.34656
292 1 2 0.242085 2.61251 -3.04575
291 1 2 1.16948 2.34864 -3.04575
270 1 2 1.35594 2.96909 -2.34656
290 1 2 1.93894 1.76758 -3.04575
268 1 2 2.7459 1.76468 -2.34656
269 1 2 2.1375 2.46681 -2.34656
272 1 2 -0.464524 3.23083 -2.34656
271 1 2 0.464524 3.23083 -2.34656
258 1 2 -1.86142 -3.22408 -1.51684
233 1 2 -2.25781 -3.271 -0.602743
259 1 2 -0.963544 -3.596 -1.51684
234 1 2 -1.4094 -3.71628 -0.602743
235 1 2 -0.47908 -3.94558 -0.602743
260 1 2 -6.83876e-16 -3.72285 -1.51684
261 1 2 0.963544 -3.596 -1.51684
236 1 2 0.47908 -3.94558 -0.602743
237 1 2 1.4094 -3.71628 -0.602743
262 1 2 1.86142 -3.22408 -1.51684
238 1 2 2.25781 -3.271 -0.602743
256 1 2 -3.22408 -1.86142 -1.51684
231 1 2 -3.5193 -1.84707 -0.602743
257 1 2 -2.63245 -2.63245 -1.51684
232 1 2 -2.975 -2.63562 -0.602743
263 1 2 2.63245 -2.63245 -1.51684
239 1 2 2.975 -2.63562 -0.602743
264 1 2 3.22408 -1.86142 -1.51684
240 1 2 3.5193 -1.84707 -0.602743
255 1 2 -3.596 -0.963544 -1.51684
230 1 2 -3.85906 -0.951174 -0.602743
265 1 2 3.596 -0.963544 -1.51684
241 1 2 3.85906 -0.951174 -0.602743
254 1 2 -3.72285 4.55917e-16 -1.51684
253 1 2 -3.596 0.963544 -1.51684
229 1 2 -3.97456 -1.27831e-15 -0.602743
228 1 2 -3.85906 0.951174 -0.602743
242 1 2 3.72285 0 -1.51684
243 1 2 3.596 0.963544 -1.51684
216 1 2 3.97456 0 -0.602743
217 1 2 3.85906 0.951174 -0.602743
252 1 2 -3.22408 1.86142 -1.51684
227 1 2 -3.5193 1.84707 -0.602743
251 1 2 -2.63245 2.63245 -1.51684
226 1 2 -2.975 2.63562 -0.602743
245 1 2 2.63245 2.63245 -1.51684
219 1 2 2.975 2.63562 -0.602743
244 1 2 3.22408 1.86142 -1.51684
218 1 2 3.5193 1.84707 -0.602743
250 1 2 -1.86142 3.22408 -1.51684
225 1 2 -2.25781 3.271 -0.602743
249 1 2 -0.963544 3.596 -1.51684
224 1 2 -1.4094 3.71628 -0.602743
223 1 2 -0.47908 3.94558 -0.602743
247 1 2 0.963544 3.596 -1.51684
248 1 2 2.27959e-16 3.72285 -1.51684
222 1 2 0.47908 3.94558 -0.602743
221 1 2 1.4094 3.71628 -0.602743
246 1 2 1.86142 3.22408 -1.51684
220 1 2 2.25781 3.271 -0.602743
207 1 2 -2.2752 -3.2962 0.344879
208 1 2 -1.42026 -3.74491 0.344879
209 1 2 -0.482771 -3.97598 0.344879
210 1 2 0.482771 -3.97598 0.344879
211 1 2 1.42026 -3.74491 0.344879
212 1 2 2.2752 -3.2962 0.344879
205 1 2 -3.54641 -1.8613 0.344879
206 1 2 -2.99792 -2.65592 0.344879
213 1 2 2.99792 -2.65592 0.344879
214 1 2 3.54641 -1.8613 0.344879
204 1 2 -3.8888 -0.958502 0.344879
215 1 2 3.8888 -0.958502 0.344879
203 1 2 -4.00518 -1.28816e-15 0.344879
202 1 2 -3.8888 0.958502 0.344879
190 1 2 4.00518 0 0.344879
191 1 2 3.8888 0.958502 0.344879
201 1 2 -3.54641 1.8613 0.344879
200 1 2 -2.99792 2.65592 0.344879
193 1 2 2.99792 2.65592 0.344879
192 1 2 3.54641 1.8613 0.344879
199 1 2 -2.2752 3.2962 0.344879
198 1 2 -1.42026 3.74491 0.344879
197 1 2 -0.482771 3.97598 0.344879
196 1 2 0.482771 3.97598 0.344879
195 1 2 1.42026 3.74491 0.344879
194 1 2 2.2752 3.2962 0.344879
182 1 2 -1.6235 -3.45012 1.27332
183 1 2 -0.714487 -3.74547 1.27332
158 1 2 -1.41604 -3.1007 2.13093
159 1 2 -0.485115 -3.37405 2.13093
184 1 2 0.239421 -3.80549 1.27332
185 1 2 1.17829 -3.62639 1.27332
160 1 2 0.485115 -3.37405 2.13093
161 1 2 1.41604 -3.1007 2.13093
186 1 2 2.04311 -3.21943 1.27332
180 1 2 -3.08479 -2.24123 1.27332
181 1 2 -2.43051 -2.93798 1.27332
157 1 2 -2.23225 -2.57616 2.13093
156 1 2 -2.86762 -1.84291 2.13093
187 1 2 2.77957 -2.61019 1.27332
162 1 2 2.23225 -2.57616 2.13093
163 1 2 2.86762 -1.84291 2.13093
188 1 2 3.34137 -1.83693 1.27332
179 1 2 -3.54525 -1.40366 1.27332
178 1 2 -3.78295 -0.477897 1.27332
155 1 2 -3.27067 -0.960355 2.13093
189 1 2 3.69322 -0.948258 1.27332
164 1 2 3.27067 -0.960355 2.13093
177 1 2 -3.78295 0.477897 1.27332
176 1 2 -3.54525 1.40366 1.27332
154 1 2 -3.40875 1.93124e-15 2.13093
153 1 2 -3.27067 0.960355 2.13093
165 1 2 3.81301 0 1.27332
166 1 2 3.69322 0.948258 1.27332
143 1 2 3.40875 0 2.13093
144 1 2 3.27067 0.960355 2.13093
175 1 2 -3.08479 2.24123 1.27332
174 1 2 -2.43051 2.93798 1.27332
152 1 2 -2.86762 1.84291 2.13093
151 1 2 -2.23225 2.57616 2.13093
168 1 2 2.77957 2.61019 1.27332
145 1 2 2.86762 1.84291 2.13093
146 1 2 2.23225 2.57616 2.13093
167 1 2 3.34137 1.83693 1.27332
173 1 2 -1.6235 3.45012 1.27332
172 1 2 -0.714487 3.74547 1.27332
150 1 2 -1.41604 3.1007 2.13093
149 1 2 -0.485115 3.37405 2.13093
170 1 2 1.17829 3.62639 1.27332
171 1 2 0.239421 3.80549 1.27332
148 1 2 0.485115 3.37405 2.13093
147 1 2 1.41604 3.1007 2.13093
169 1 2 2.04311 3.21943 1.27332
136 1 2 -1.90646 -2.07097 2.87
137 1 2 -1.13072 -2.57778 2.87
138 1 2 -0.23245 -2.80525 2.87
119 1 2 -1.28714 -1.61402 3.44943
120 1 2 -0.459375 -2.01265 3.44943
139 1 2 0.691009 -2.72873 2.87
121 1 2 0.459375 -2.01265 3.44943
122 1 2 1.28714 -1.61402 3.44943
140 1 2 1.53959 -2.35651 2.87
141 1 2 2.22133 -1.72893 2.87
135 1 2 -2.4756 -1.33973 2.87
134 1 2 -2.77648 -0.463312 2.87
118 1 2 -1.85997 -0.895715 3.44943
106 1 3 -1.12681 -0.410124 3.83699
107 1 3 -0.599562 -1.03847 3.83699
108 1 3 0.208226 -1.18091 3.83699
109 1 3 0.918582 -0.770782 3.83699
1 1 1 0.0273321 -0.0458876 4.02234
123 1 2 1.85997 -0.895715 3.44943
142 1 2 2.66235 -0.913986 2.87
117 1 2 -2.06441 2.52818e-16 3.44943
133 1 2 -2.77648 0.463312 2.87
116 1 2 -1.85997 0.895715 3.44943
132 1 2 -2.4756 1.33973 2.87
104 1 3 -0.599562 1.03847 3.83699
105 1 3 -1.12681 0.410124 3.83699
101 1 3 1.19912 0 3.83699
103 1 3 0.208226 1.18091 3.83699
102 1 3 0.918582 0.770782 3.83699
110 1 2 2.06441 0 3.44943
124 1 2 2.81487 0 2.87
111 1 2 1.85997 0.895715 3.44943
125 1 2 2.66235 0.913986 2.87
131 1 2 -1.90646 2.07097 2.87
115 1 2 -1.28714 1.61402 3.44943
114 1 2 -0.459375 2.01265 3.44943
130 1 2 -1.13072 2.57778 2.87
129 1 2 -0.23245 2.80525 2.87
113 1 2 0.459375 2.01265 3.44943
112 1 2 1.28714 1.61402 3.44943
128 1 2 0.691009 2.72873 2.87
126 1 2 2.22133 1.72893 2.87
127 1 2 1.53959 2.35651 2.87
2 1 1 0.233367 0.348026 4.93061
3 1 1 0.588042 0.62716 5.81035
4 1 1 0.743731 1.03951 6.70749
5 1 1 0.897498 1.23421 7.63165
6 1 1 1.09518 1.83073 8.28102
7 1 1 0.98311 2.27369 9.09647
8 1 1 1.41159 2.89745 9.63909
9 1 1 1.46977 3.55333 10.3777
10 1 1 1.47682 3.94939 11.2654
11 1 1 1.12242 4.1491 12.1358
12 1 1 0.896801 4.45976 12.9815
14 1 1 -0.372576 5.14307 14.0969
13 1 1 0.365431 5.1258 13.4982
15 1 1 -0.785986 5.765 14.6676
16 1 1 -1.12155 6.17371 15.5041
18 1 1 -1.4067 5.64827 17.3169
17 1 1 -1.37782 6.00479 16.459
19 1 1 -1.12812 5.4077 18.1724
20 1 1 -0.553361 5.49546 18.8854
21 1 1 0.030695 5.62943 19.6128
22 1 1 0.668803 5.58505 20.2895
23 1 1 0.945411 5.46474 21.2029
24 1 1 0.592174 5.95679 21.9775
26 1 1 -0.533367 7.09694 22.9416
25 1 1 0.156251 6.60373 22.5031
27 1 1 -1.14163 7.80572 22.8834
28 1 1 -1.42364 8.72317 23.0173
29 1 1 -1.71675 9.27564 23.7612
30 1 1 -2.32038 9.48119 24.4771
31 1 1 -3.03264 9.64764 25.128
32 1 1 -3.11907 9.5706 26.0891
33 1 1 -3.22715 9.9429 26.9692
34 1 1 -3.15995 10.595 27.7178
36 1 1 -2.38077 11.5821 29.2194
35 1 1 -2.63615 11.1203 28.4528
37 1 1 -2.07748 12.0838 29.9771
38 1 1 -1.94095 12.5152 30.8917
39 1 1 -1.74582 13.1029 31.7669
40 1 1 -1.63107 13.6355 32.5333
41 1 1 -1.22229 13.6929 33.3896
44 1 1 0.934744 13.8384 35.3528
42 1 1 -0.730845 13.9241 34.1625
43 1 1 0.0396732 14.0696 34.8194
45 1 1 1.36914 13.4693 36.1627
46 1 1 1.9574 13.6705 36.9139
47 1 1 2.57531 13.7494 37.7136
48 1 1 2.95974 14.1736 38.4106
50 1 1 3.88786 13.7074 39.9935
49 1 1 3.57459 13.9781 39.1334
85 1 1 6.18412 -6.42924 41.4419
84 1 1 5.60811 -5.72452 41.1488
83 1 1 5.41332 -4.79003 41.1125
82 1 1 5.38827 -3.83736 40.9332
81 1 1 5.18774 -2.86921 41.1162
80 1 1 5.39016 -1.91749 41.0101
78 1 1 4.90458 -0.163579 40.5955
79 1 1 5.14065 -1.05989 40.768
77 1 1 4.60378 0.787356 40.515
76 1 1 4.74448 1.58233 41.0484
51 1 1 4.16466 13.6275 40.9102
86 1 1 6.89623 -6.36678 42.1092
87 1 1 7.6252 -6.11498 42.5949
88 1 1 8.30359 -5.5365 42.9731
75 1 1 5.17911 1.84916 41.885
74 1 1 5.57576 1.77945 42.7367
52 1 1 4.48758 13.3095 41.7306
53 1 1 4.71089 12.8138 42.5809
89 1 1 8.59208 -4.99606 43.6778
90 1 1 8.69164 -4.28163 44.2809
91 1 1 9.10803 -3.43484 44.5293
92 1 1 9.14245 -2.39165 44.5783
93 1 1 8.71989 -1.50924 44.3918
94 1 1 8.92253 -0.563959 44.5226
73 1 1 5.36037 1.45515 43.6623
72 1 1 5.23688 1.78792 44.5451
55 1 1 5.696 12.0392 44.0425
54 1 1 5.16885 12.5553 43.408
95 1 1 9.2804 0.31873 44.8052
96 1 1 9.64064 1.16444 45.2102
71 1 1 4.74422 2.42485 45.1087
97 1 1 10.2366 1.88861 45.1299
98 1 1 10.2453 2.88733 45.1776
69 1 1 3.98811 4.05352 45.8611
70 1 1 4.39809 3.27831 45.5554
99 1 1 10.3535 3.7272 45.7042
67 1 1 2.69797 5.54083 45.9417
68 1 1 3.42795 4.80895 45.7747
66 1 1 2.18731 6.3136 45.8531
56 1 1 5.83893 11.7751 44.9408
57 1 1 5.80293 11.4926 45.8612
100 1 1 10.8718 4.3361 46.2446
65 1 1 1.86609 7.15783 46.234
64 1 1 1.73333 7.91478 46.8213
63 1 1 1.85199 8.80395 47.1994
62 1 1 2.18605 9.70787 47.5134
60 1 1 3.8478 10.6483 47.61
59 1 1 4.68049 11.1202 47.3358
58 1 1 5.2348 11.5854 46.6909
61 1 1 2.91351 10.3103 47.7523
